
                                 *****************
                                 * O   R   C   A *
                                 *****************

                                            #,                                       
                                            ###                                      
                                            ####                                     
                                            #####                                    
                                            ######                                   
                                           ########,                                 
                                     ,,################,,,,,                         
                               ,,#################################,,                 
                          ,,##########################################,,             
                       ,#########################################, ''#####,          
                    ,#############################################,,   '####,        
                  ,##################################################,,,,####,       
                ,###########''''           ''''###############################       
              ,#####''   ,,,,##########,,,,          '''####'''          '####       
            ,##' ,,,,###########################,,,                        '##       
           ' ,,###''''                  '''############,,,                           
         ,,##''                                '''############,,,,        ,,,,,,###''
      ,#''                                            '''#######################'''  
     '                                                          ''''####''''         
             ,#######,   #######,   ,#######,      ##                                
            ,#'     '#,  ##    ##  ,#'     '#,    #''#        ######   ,####,        
            ##       ##  ##   ,#'  ##            #'  '#       #        #'  '#        
            ##       ##  #######   ##           ,######,      #####,   #    #        
            '#,     ,#'  ##    ##  '#,     ,#' ,#      #,         ##   #,  ,#        
             '#######'   ##     ##  '#######'  #'      '#     #####' # '####'        



                  #######################################################
                  #                        -***-                        #
                  #          Department of theory and spectroscopy      #
                  #    Directorship and core code : Frank Neese         #
                  #        Max Planck Institute fuer Kohlenforschung    #
                  #                Kaiser Wilhelm Platz 1               #
                  #                 D-45470 Muelheim/Ruhr               #
                  #                      Germany                        #
                  #                                                     #
                  #                  All rights reserved                #
                  #                        -***-                        #
                  #######################################################


                         Program Version 5.0.1 -  RELEASE  -


 With contributions from (in alphabetic order):
   Daniel Aravena         : Magnetic Suceptibility
   Michael Atanasov       : Ab Initio Ligand Field Theory (pilot matlab implementation)
   Alexander A. Auer      : GIAO ZORA, VPT2 properties, NMR spectrum
   Ute Becker             : Parallelization
   Giovanni Bistoni       : ED, misc. LED, open-shell LED, HFLD
   Martin Brehm           : Molecular dynamics
   Dmytro Bykov           : SCF Hessian
   Vijay G. Chilkuri      : MRCI spin determinant printing, contributions to CSF-ICE
   Dipayan Datta          : RHF DLPNO-CCSD density
   Achintya Kumar Dutta   : EOM-CC, STEOM-CC
   Dmitry Ganyushin       : Spin-Orbit,Spin-Spin,Magnetic field MRCI
   Miquel Garcia          : C-PCM and meta-GGA Hessian, CC/C-PCM, Gaussian charge scheme
   Yang Guo               : DLPNO-NEVPT2, F12-NEVPT2, CIM, IAO-localization
   Andreas Hansen         : Spin unrestricted coupled pair/coupled cluster methods
   Benjamin Helmich-Paris : MC-RPA, TRAH-SCF, COSX integrals
   Lee Huntington         : MR-EOM, pCC
   Robert Izsak           : Overlap fitted RIJCOSX, COSX-SCS-MP3, EOM
   Marcus Kettner         : VPT2
   Christian Kollmar      : KDIIS, OOCD, Brueckner-CCSD(T), CCSD density, CASPT2, CASPT2-K
   Simone Kossmann        : Meta GGA functionals, TD-DFT gradient, OOMP2, MP2 Hessian
   Martin Krupicka        : Initial AUTO-CI
   Lucas Lang             : DCDCAS
   Marvin Lechner         : AUTO-CI (C++ implementation), FIC-MRCC
   Dagmar Lenk            : GEPOL surface, SMD
   Dimitrios Liakos       : Extrapolation schemes; Compound Job, initial MDCI parallelization
   Dimitrios Manganas     : Further ROCIS development; embedding schemes
   Dimitrios Pantazis     : SARC Basis sets
   Anastasios Papadopoulos: AUTO-CI, single reference methods and gradients
   Taras Petrenko         : DFT Hessian,TD-DFT gradient, ASA, ECA, R-Raman, ABS, FL, XAS/XES, NRVS
   Peter Pinski           : DLPNO-MP2, DLPNO-MP2 Gradient
   Christoph Reimann      : Effective Core Potentials
   Marius Retegan         : Local ZFS, SOC
   Christoph Riplinger    : Optimizer, TS searches, QM/MM, DLPNO-CCSD(T), (RO)-DLPNO pert. Triples
   Tobias Risthaus        : Range-separated hybrids, TD-DFT gradient, RPA, STAB
   Michael Roemelt        : Original ROCIS implementation
   Masaaki Saitow         : Open-shell DLPNO-CCSD energy and density
   Barbara Sandhoefer     : DKH picture change effects
   Avijit Sen             : IP-ROCIS
   Kantharuban Sivalingam : CASSCF convergence, NEVPT2, FIC-MRCI
   Bernardo de Souza      : ESD, SOC TD-DFT
   Georgi Stoychev        : AutoAux, RI-MP2 NMR, DLPNO-MP2 response
   Willem Van den Heuvel  : Paramagnetic NMR
   Boris Wezisla          : Elementary symmetry handling
   Frank Wennmohs         : Technical directorship


 We gratefully acknowledge several colleagues who have allowed us to
 interface, adapt or use parts of their codes:
   Stefan Grimme, W. Hujo, H. Kruse, P. Pracht,  : VdW corrections, initial TS optimization,
                  C. Bannwarth, S. Ehlert          DFT functionals, gCP, sTDA/sTD-DF
   Ed Valeev, F. Pavosevic, A. Kumar             : LibInt (2-el integral package), F12 methods
   Garnet Chan, S. Sharma, J. Yang, R. Olivares  : DMRG
   Ulf Ekstrom                                   : XCFun DFT Library
   Mihaly Kallay                                 : mrcc  (arbitrary order and MRCC methods)
   Jiri Pittner, Ondrej Demel                    : Mk-CCSD
   Frank Weinhold                                : gennbo (NPA and NBO analysis)
   Christopher J. Cramer and Donald G. Truhlar   : smd solvation model
   Lars Goerigk                                  : TD-DFT with DH, B97 family of functionals
   V. Asgeirsson, H. Jonsson                     : NEB implementation
   FAccTs GmbH                                   : IRC, NEB, NEB-TS, DLPNO-Multilevel, CI-OPT
                                                   MM, QMMM, 2- and 3-layer-ONIOM, Crystal-QMMM,
                                                   LR-CPCM, SF, NACMEs, symmetry and pop. for TD-DFT,
                                                   nearIR, NL-DFT gradient (VV10), updates on ESD,
                                                   ML-optimized integration grids
   S Lehtola, MJT Oliveira, MAL Marques          : LibXC Library
   Liviu Ungur et al                             : ANISO software


 Your calculation uses the libint2 library for the computation of 2-el integrals
 For citations please refer to: http://libint.valeyev.net

 Your ORCA version has been built with support for libXC version: 5.1.0
 For citations please refer to: https://tddft.org/programs/libxc/

 This ORCA versions uses:
   CBLAS   interface :  Fast vector & matrix operations
   LAPACKE interface :  Fast linear algebra routines
   SCALAPACK package :  Parallel linear algebra routines
   Shared memory     :  Shared parallel matrices
   BLAS/LAPACK       :  OpenBLAS 0.3.15  USE64BITINT DYNAMIC_ARCH NO_AFFINITY Sandybridge SINGLE_THREADED
        Core in use  :  Sandybridge
   Copyright (c) 2011-2014, The OpenBLAS Project


================================================================================

----- Orbital basis set information -----
Your calculation utilizes the basis: 6-31G**
   H-He, Li-Ne : W. J. Hehre, R. Ditchfield and J.A. Pople, J. Chem. Phys. 56, 2257 (1972).
                 Note: He and Ne are unpublished basis sets taken from the Gaussian program.
                 Note: Li and B from J. D. Dill and J. A. Pople, J. Chem. Phys. 62, 2921 (1975).
   Na - Ar     : M. M. Francl, W. J. Pietro, W. J. Hehre, J. S. Binkley, M. S. Gordon, 
                 D. J. DeFrees and J. A. Pople, J. Chem. Phys. 77, 3654 (1982).
   K - Zn      : V. A. Rassolov, J. A. Pople, M. A. Ratner, and T. L. Windus, J. Chem. Phys. 109, 1223 (1998).

----- AuxJ basis set information -----
Your calculation utilizes the auxiliary basis: def2/J
   F. Weigend, Phys. Chem. Chem. Phys. 8, 1057 (2006).

================================================================================
                                        WARNINGS
                       Please study these warnings very carefully!
================================================================================


WARNING: The environment variable RSH_COMMAND is not set!
  ===> : All Displacements for the Numerical Hessian calculation
         will be started on localhost

WARNING: Geometry Optimization
  ===> : Switching off AutoStart
         For restart on a previous wavefunction, please use MOREAD

INFO   : the flag for use of the SHARK integral package has been found!

================================================================================
                                       INPUT FILE
================================================================================
NAME = sxt_benzeno.inp
|  1> # ================================================================
|  2> # Orca input file made in Gabedit
|  3> # ================================================================
|  4> !  NumFreq  B3LYP Opt
|  5> %pal
|  6> nprocs 4
|  7> end
|  8> 
|  9> %FREQ TEMP 300, 400, 500, 600, 700, 800, 900, 1000, 1100, 1200, 1300
| 10>        PRESSURE 1, 70, 80, 90
| 11> end
| 12> ! PrintBasis 6-31G** 
| 13> %output
| 14>      print[p_mos] 1
| 15>  end #output
| 16> * xyz 0   1
| 17>  C  -0.739000 1.189000 -0.007334
| 18>  C  0.614000 1.208000 0.351666
| 19>  C  1.353000 0.019000 0.358666
| 20>  C  0.739000 -1.189000 0.006666
| 21>  C  -0.614000 -1.208000 -0.351334
| 22>  C  -1.353000 -0.019000 -0.358334
| 23>  H  -1.309000 2.106000 -0.012334
| 24>  H  1.088000 2.140000 0.622666
| 25>  H  2.397000 0.034000 0.634666
| 26>  H  1.309000 -2.106000 0.012666
| 27>  H  -1.088000 -2.140000 -0.622334
| 28>  H  -2.397000 -0.034000 -0.635334
| 29> *
| 30> 
| 31>                          ****END OF INPUT****
================================================================================

                       *****************************
                       * Geometry Optimization Run *
                       *****************************

Geometry optimization settings:
Update method            Update   .... BFGS
Choice of coordinates    CoordSys .... Z-matrix Internals
Initial Hessian          InHess   .... Almoef's Model

Convergence Tolerances:
Energy Change            TolE     ....  5.0000e-06 Eh
Max. Gradient            TolMAXG  ....  3.0000e-04 Eh/bohr
RMS Gradient             TolRMSG  ....  1.0000e-04 Eh/bohr
Max. Displacement        TolMAXD  ....  4.0000e-03 bohr
RMS Displacement         TolRMSD  ....  2.0000e-03 bohr
Strict Convergence                ....  False
------------------------------------------------------------------------------
                        ORCA OPTIMIZATION COORDINATE SETUP
------------------------------------------------------------------------------

The optimization will be done in new redundant internal coordinates
Making redundant internal coordinates   ...  (new redundants) done
Evaluating the initial hessian          ...  (Almloef) done
Evaluating the coordinates              ...  done
Calculating the B-matrix                .... done
Calculating the G-matrix                .... done
Diagonalizing the G-matrix              .... done
The first mode is                       ....   24
The number of degrees of freedom        ....   30

    -----------------------------------------------------------------
                    Redundant Internal Coordinates


    -----------------------------------------------------------------
         Definition                    Initial Value    Approx d2E/dq
    -----------------------------------------------------------------
      1. B(C   1,C   0)                  1.3999         0.602378   
      2. B(C   2,C   1)                  1.4000         0.602346   
      3. B(C   3,C   2)                  1.4001         0.602131   
      4. B(C   4,C   3)                  1.3997         0.602945   
      5. B(C   5,C   4)                  1.4000         0.602346   
      6. B(C   5,C   0)                  1.3998         0.602686   
      7. B(H   6,C   0)                  1.0797         0.373947   
      8. B(H   7,C   1)                  1.0802         0.373358   
      9. B(H   8,C   2)                  1.0800         0.373615   
     10. B(H   9,C   3)                  1.0797         0.373940   
     11. B(H  10,C   4)                  1.0802         0.373358   
     12. B(H  11,C   5)                  1.0802         0.373264   
     13. A(C   1,C   0,C   5)          119.9958         0.429631   
     14. A(C   1,C   0,H   6)          119.9913         0.353441   
     15. A(C   5,C   0,H   6)          120.0129         0.353472   
     16. A(C   2,C   1,H   7)          119.9946         0.353344   
     17. A(C   0,C   1,C   2)          119.9951         0.429587   
     18. A(C   0,C   1,H   7)          120.0104         0.353347   
     19. A(C   3,C   2,H   8)          120.0121         0.353363   
     20. A(C   1,C   2,H   8)          119.9849         0.353385   
     21. A(C   1,C   2,C   3)          120.0030         0.429556   
     22. A(C   4,C   3,H   9)          120.0126         0.353496   
     23. A(C   2,C   3,H   9)          119.9912         0.353415   
     24. A(C   2,C   3,C   4)          119.9961         0.429632   
     25. A(C   3,C   4,H  10)          120.0046         0.353403   
     26. A(C   3,C   4,C   5)          120.0009         0.429660   
     27. A(C   5,C   4,H  10)          119.9946         0.353344   
     28. A(C   0,C   5,C   4)          120.0091         0.429627   
     29. A(C   4,C   5,H  11)          119.9774         0.353328   
     30. A(C   0,C   5,H  11)          120.0135         0.353362   
     31. D(H   7,C   1,C   0,C   5)   -179.9929         0.025025   
     32. D(H   7,C   1,C   0,H   6)     -0.0623         0.025025   
     33. D(C   2,C   1,C   0,H   6)    179.9758         0.025025   
     34. D(C   2,C   1,C   0,C   5)      0.0452         0.025025   
     35. D(H   8,C   2,C   1,C   0)    179.9377         0.025023   
     36. D(C   3,C   2,C   1,C   0)     -0.0000         0.025023   
     37. D(C   3,C   2,C   1,H   7)   -179.9619         0.025023   
     38. D(H   8,C   2,C   1,H   7)     -0.0242         0.025023   
     39. D(H   9,C   3,C   2,H   8)      0.0967         0.025004   
     40. D(H   9,C   3,C   2,C   1)   -179.9656         0.025004   
     41. D(C   4,C   3,C   2,H   8)   -179.9828         0.025004   
     42. D(C   4,C   3,C   2,C   1)     -0.0452         0.025004   
     43. D(H  10,C   4,C   3,C   2)   -179.9619         0.025075   
     44. D(C   5,C   4,C   3,H   9)    179.9656         0.025075   
     45. D(C   5,C   4,C   3,C   2)      0.0452         0.025075   
     46. D(H  10,C   4,C   3,H   9)     -0.0414         0.025075   
     47. D(H  11,C   5,C   4,H  10)     -0.0343         0.025023   
     48. D(C   0,C   5,C   4,H  10)   -179.9929         0.025023   
     49. D(C   0,C   5,C   4,C   3)      0.0000         0.025023   
     50. D(H  11,C   5,C   0,H   6)      0.0657         0.025052   
     51. D(H  11,C   5,C   0,C   1)    179.9962         0.025052   
     52. D(H  11,C   5,C   4,C   3)    179.9586         0.025023   
     53. D(C   4,C   5,C   0,H   6)   -179.9758         0.025052   
     54. D(C   4,C   5,C   0,C   1)     -0.0452         0.025052   
    -----------------------------------------------------------------

Number of atoms                         .... 12
Number of degrees of freedom            .... 54

         *************************************************************
         *                GEOMETRY OPTIMIZATION CYCLE   1            *
         *************************************************************
---------------------------------
CARTESIAN COORDINATES (ANGSTROEM)
---------------------------------
  C     -0.739000    1.189000   -0.007334
  C      0.614000    1.208000    0.351666
  C      1.353000    0.019000    0.358666
  C      0.739000   -1.189000    0.006666
  C     -0.614000   -1.208000   -0.351334
  C     -1.353000   -0.019000   -0.358334
  H     -1.309000    2.106000   -0.012334
  H      1.088000    2.140000    0.622666
  H      2.397000    0.034000    0.634666
  H      1.309000   -2.106000    0.012666
  H     -1.088000   -2.140000   -0.622334
  H     -2.397000   -0.034000   -0.635334

----------------------------
CARTESIAN COORDINATES (A.U.)
----------------------------
  NO LB      ZA    FRAG     MASS         X           Y           Z
   0 C     6.0000    0    12.011   -1.396508    2.246884   -0.013859
   1 C     6.0000    0    12.011    1.160292    2.282789    0.664552
   2 C     6.0000    0    12.011    2.556799    0.035905    0.677781
   3 C     6.0000    0    12.011    1.396508   -2.246884    0.012597
   4 C     6.0000    0    12.011   -1.160292   -2.282789   -0.663925
   5 C     6.0000    0    12.011   -2.556799   -0.035905   -0.677153
   6 H     1.0000    0     1.008   -2.473652    3.979763   -0.023308
   7 H     1.0000    0     1.008    2.056022    4.044014    1.176668
   8 H     1.0000    0     1.008    4.529674    0.064251    1.199345
   9 H     1.0000    0     1.008    2.473652   -3.979763    0.023935
  10 H     1.0000    0     1.008   -2.056022   -4.044014   -1.176041
  11 H     1.0000    0     1.008   -4.529674   -0.064251   -1.200607

--------------------------------
INTERNAL COORDINATES (ANGSTROEM)
--------------------------------
 C      0   0   0     0.000000000000     0.00000000     0.00000000
 C      1   0   0     1.399946784703     0.00000000     0.00000000
 C      2   1   0     1.399961070887   119.99505472     0.00000000
 C      3   2   1     1.400058570203   120.00297895     0.00000000
 C      4   3   2     1.399690680115   119.99613560   359.95481263
 C      1   2   3     1.399807486764   119.99578016     0.04518344
 H      1   2   3     1.079728669620   119.99127550   179.97578029
 H      2   1   3     1.080157858834   120.01038012   179.96187026
 H      3   2   1     1.079970832939   119.98487983   179.93766072
 H      4   3   2     1.079733763481   119.99119244   180.03435522
 H      5   4   3     1.080157858834   120.00457543   180.03811983
 H      6   1   2     1.080226828032   120.01348559   179.99623488

---------------------------
INTERNAL COORDINATES (A.U.)
---------------------------
 C      0   0   0     0.000000000000     0.00000000     0.00000000
 C      1   0   0     2.645516025152     0.00000000     0.00000000
 C      2   1   0     2.645543022128   119.99505472     0.00000000
 C      3   2   1     2.645727269134   120.00297895     0.00000000
 C      4   3   2     2.645032057619   119.99613560   359.95481263
 C      1   2   3     2.645252790196   119.99578016     0.04518344
 H      1   2   3     2.040391484525   119.99127550   179.97578029
 H      2   1   3     2.041202534598   120.01038012   179.96187026
 H      3   2   1     2.040849106878   119.98487983   179.93766072
 H      4   3   2     2.040401110526   119.99119244   180.03435522
 H      5   4   3     2.041202534598   120.00457543   180.03811983
 H      6   1   2     2.041332867495   120.01348559   179.99623488

---------------------
BASIS SET INFORMATION
---------------------
There are 2 groups of distinct atoms

 Group   1 Type C   : 10s4p1d contracted to 3s2p1d pattern {631/31/1}
 Group   2 Type H   : 4s1p contracted to 2s1p pattern {31/1}

Atom   0C    basis set group =>   1
Atom   1C    basis set group =>   1
Atom   2C    basis set group =>   1
Atom   3C    basis set group =>   1
Atom   4C    basis set group =>   1
Atom   5C    basis set group =>   1
Atom   6H    basis set group =>   2
Atom   7H    basis set group =>   2
Atom   8H    basis set group =>   2
Atom   9H    basis set group =>   2
Atom  10H    basis set group =>   2
Atom  11H    basis set group =>   2

-------------------------
BASIS SET IN INPUT FORMAT
-------------------------

 # Basis set for element : H 
 NewGTO H 
 S 3 
   1      18.7311370000      0.0334945995
   2       2.8253937000      0.2347269467
   3       0.6401217000      0.8137573184
 S 1 
   1       0.1612778000      1.0000000000
 P 1 
   1       1.1000000000      1.0000000000
  end;

 # Basis set for element : C 
 NewGTO C 
 S 6 
   1    3047.5249000000      0.0018347002
   2     457.3695100000      0.0140373012
   3     103.9486900000      0.0688426061
   4      29.2101550000      0.2321844206
   5       9.2866630000      0.4679413416
   6       3.1639270000      0.3623120322
 S 3 
   1       7.8682724000     -0.1193324086
   2       1.8812885000     -0.1608542116
   3       0.5442493000      1.1434564826
 P 3 
   1       7.8682724000      0.0689990956
   2       1.8812885000      0.3164239798
   3       0.5442493000      0.7443082524
 S 1 
   1       0.1687144000      1.0000000000
 P 1 
   1       0.1687144000      1.0000000000
 D 1 
   1       0.8000000000      1.0000000000
  end;

---------------------------------
AUXILIARY/J BASIS SET INFORMATION
---------------------------------
There are 2 groups of distinct atoms

 Group   1 Type C   : 12s5p4d2f1g contracted to 6s4p3d1f1g pattern {711111/2111/211/2/1}
 Group   2 Type H   : 5s2p1d contracted to 3s1p1d pattern {311/2/1}

Atom   0C    basis set group =>   1
Atom   1C    basis set group =>   1
Atom   2C    basis set group =>   1
Atom   3C    basis set group =>   1
Atom   4C    basis set group =>   1
Atom   5C    basis set group =>   1
Atom   6H    basis set group =>   2
Atom   7H    basis set group =>   2
Atom   8H    basis set group =>   2
Atom   9H    basis set group =>   2
Atom  10H    basis set group =>   2
Atom  11H    basis set group =>   2

-------------------------------------
AUXILIARY/J BASIS SET IN INPUT FORMAT
-------------------------------------

 # Auxiliary/J basis set for element : H 
 NewAuxJGTO H 
 S 3 
   1      15.6752927000      0.1007184237
   2       3.6063578000      0.3404257499
   3       1.2080016000      0.6491996172
 S 1 
   1       0.4726794000      1.0000000000
 S 1 
   1       0.2018100000      1.0000000000
 P 2 
   1       2.0281365000      0.5596620919
   2       0.5358730000      0.5596620919
 D 1 
   1       2.2165124000      1.0000000000
  end;

 # Auxiliary/J basis set for element : C 
 NewAuxJGTO C 
 S 7 
   1    1861.0916331000      0.0134602335
   2     642.9939764000      0.0299160374
   3     235.1105725000      0.1008649584
   4      90.7028894000      0.2370970548
   5      36.7794552000      0.3924037254
   6      15.6046273000      0.3195862154
   7       6.8907294000      0.0530104441
 S 1 
   1       3.1478850000     -1.0000000000
 S 1 
   1       1.4777287000      1.0000000000
 S 1 
   1       0.7076466000      1.0000000000
 S 1 
   1       0.3430122000      1.0000000000
 S 1 
   1       0.1669453000      1.0000000000
 P 2 
   1      13.5472892000     -0.6769313712
   2       5.4669419000     -0.3779500978
 P 1 
   1       2.1751721000      1.0000000000
 P 1 
   1       0.8582194000      1.0000000000
 P 1 
   1       0.3376720000      1.0000000000
 D 2 
   1       5.9287253000     -0.3533329857
   2       1.9809209000     -0.7456525731
 D 1 
   1       0.8055417000     -1.0000000000
 D 1 
   1       0.3531244000     -1.0000000000
 F 2 
   1       1.6755626000      0.6311076882
   2       0.5997536000      0.4968166032
 G 1 
   1       1.0024600000     -1.0000000000
  end;



           ************************************************************
           *        Program running with 4 parallel MPI-processes     *
           *              working on a common directory               *
           ************************************************************
------------------------------------------------------------------------------
                           ORCA GTO INTEGRAL CALCULATION
                           -- RI-GTO INTEGRALS CHOSEN --
------------------------------------------------------------------------------
------------------------------------------------------------------------------
                   ___                                                        
                  /   \      - P O W E R E D   B Y -                         
                 /     \                                                     
                 |  |  |   _    _      __       _____    __    __             
                 |  |  |  | |  | |    /  \     |  _  \  |  |  /  |          
                  \  \/   | |  | |   /    \    | | | |  |  | /  /          
                 / \  \   | |__| |  /  /\  \   | |_| |  |  |/  /          
                |  |  |   |  __  | /  /__\  \  |    /   |      \           
                |  |  |   | |  | | |   __   |  |    \   |  |\   \          
                \     /   | |  | | |  |  |  |  | |\  \  |  | \   \       
                 \___/    |_|  |_| |__|  |__|  |_| \__\ |__|  \__/        
                                                                              
                      - O R C A' S   B I G   F R I E N D -                    
                                      &                                       
                       - I N T E G R A L  F E E D E R -                       
                                                                              
 v1 FN, 2020, v2 2021                                                         
------------------------------------------------------------------------------


Reading SHARK input file sxt_benzeno.SHARKINP.tmp ... ok
----------------------
SHARK INTEGRAL PACKAGE
----------------------

Number of atoms                             ...     12
Number of basis functions                   ...    114
Number of shells                            ...     54
Maximum angular momentum                    ...      2
Integral batch strategy                     ... SHARK/LIBINT Hybrid
RI-J (if used) integral strategy            ... SPLIT-RIJ (Revised 2003 algorithm where possible)
Printlevel                                  ...      1
Contraction scheme used                     ... SEGMENTED contraction
Coulomb Range Separation                    ... NOT USED
Exchange Range Separation                   ... NOT USED
Finite Nucleus Model                        ... NOT USED
Auxiliary Coulomb fitting basis             ... AVAILABLE
   # of basis functions in Aux-J            ...    360
   # of shells in Aux-J                     ...    120
   Maximum angular momentum in Aux-J        ...      4
Auxiliary J/K fitting basis                 ... NOT available
Auxiliary Correlation fitting basis         ... NOT available
Auxiliary 'external' fitting basis          ... NOT available
Integral threshold                          ...     2.500000e-11
Primitive cut-off                           ...     2.500000e-12
Primitive pair pre-selection threshold      ...     2.500000e-12

Calculating pre-screening integrals         ... done (  0.3 sec) Dimension = 54
Organizing shell pair data                  ... done (  0.1 sec)
Shell pair information
Total number of shell pairs                 ...      1485
Shell pairs after pre-screening             ...      1434
Total number of primitive shell pairs       ...      7404
Primitive shell pairs kept                  ...      5307
          la=0 lb=0:    447 shell pairs
          la=1 lb=0:    516 shell pairs
          la=1 lb=1:    162 shell pairs
          la=2 lb=0:    180 shell pairs
          la=2 lb=1:    108 shell pairs
          la=2 lb=2:     21 shell pairs

Calculating one electron integrals          ... done (  0.0 sec)
Calculating RI/J V-Matrix + Cholesky decomp.... done (  0.1 sec)
Calculating Nuclear repulsion               ... done (  0.0 sec) ENN=    202.979746794379 Eh

SHARK setup successfully completed in   0.7 seconds

Maximum memory used throughout the entire GTOINT-calculation: 9.7 MB


           ************************************************************
           *        Program running with 4 parallel MPI-processes     *
           *              working on a common directory               *
           ************************************************************
-------------------------------------------------------------------------------
                                 ORCA SCF
-------------------------------------------------------------------------------

------------
SCF SETTINGS
------------
Hamiltonian:
 Density Functional     Method          .... DFT(GTOs)
 Exchange Functional    Exchange        .... B88
   X-Alpha parameter    XAlpha          ....  0.666667
   Becke's b parameter  XBeta           ....  0.004200
 Correlation Functional Correlation     .... LYP
 LDA part of GGA corr.  LDAOpt          .... VWN-5
 Gradients option       PostSCFGGA      .... off
 Hybrid DFT is turned on
   Fraction HF Exchange ScalHFX         ....  0.200000
   Scaling of DF-GGA-X  ScalDFX         ....  0.720000
   Scaling of DF-GGA-C  ScalDFC         ....  0.810000
   Scaling of DF-LDA-C  ScalLDAC        ....  1.000000
   Perturbative correction              ....  0.000000
   Density functional embedding theory  .... OFF
   NL short-range parameter             ....  4.800000
 RI-approximation to the Coulomb term is turned on
   Number of AuxJ basis functions       .... 360
   RIJ-COSX (HFX calculated with COS-X)).... on


General Settings:
 Integral files         IntName         .... sxt_benzeno
 Hartree-Fock type      HFTyp           .... RHF
 Total Charge           Charge          ....    0
 Multiplicity           Mult            ....    1
 Number of Electrons    NEL             ....   42
 Basis Dimension        Dim             ....  114
 Nuclear Repulsion      ENuc            ....    202.9797467944 Eh

Convergence Acceleration:
 DIIS                   CNVDIIS         .... on
   Start iteration      DIISMaxIt       ....    12
   Startup error        DIISStart       ....  0.200000
   # of expansion vecs  DIISMaxEq       ....     5
   Bias factor          DIISBfac        ....   1.050
   Max. coefficient     DIISMaxC        ....  10.000
 Trust-Rad. Augm. Hess. CNVTRAH         .... auto
   Auto Start mean grad. ratio tolernc. ....  1.125000
   Auto Start start iteration           ....    20
   Auto Start num. interpolation iter.  ....    10
   Max. Number of Micro iterations      ....    16
   Max. Number of Macro iterations      .... Maxiter - #DIIS iter
   Number of Davidson start vectors     ....     2
   Converg. threshold I  (grad. norm)   ....   1.000e-05
   Converg. threshold II (energy diff.) ....   1.000e-08
   Grad. Scal. Fac. for Micro threshold ....   0.100
   Minimum threshold for Micro iter.    ....   0.010
   NR start threshold (gradient norm)   ....   0.001
   Initial trust radius                 ....   0.400
   Minimum AH scaling param. (alpha)    ....   1.000
   Maximum AH scaling param. (alpha)    .... 1000.000
   Orbital update algorithm             .... Taylor
   White noise on init. David. guess    .... on
   Maximum white noise                  ....   0.010
   Quad. conv. algorithm                .... NR
 SOSCF                  CNVSOSCF        .... on
   Start iteration      SOSCFMaxIt      ....   150
   Startup grad/error   SOSCFStart      ....  0.003300
 Level Shifting         CNVShift        .... on
   Level shift para.    LevelShift      ....    0.2500
   Turn off err/grad.   ShiftErr        ....    0.0010
 Zerner damping         CNVZerner       .... off
 Static damping         CNVDamp         .... on
   Fraction old density DampFac         ....    0.7000
   Max. Damping (<1)    DampMax         ....    0.9800
   Min. Damping (>=0)   DampMin         ....    0.0000
   Turn off err/grad.   DampErr         ....    0.1000
 Fernandez-Rico         CNVRico         .... off

SCF Procedure:
 Maximum # iterations   MaxIter         ....   125
 SCF integral mode      SCFMode         .... Direct
   Integral package                     .... SHARK and LIBINT hybrid scheme
 Reset frequency        DirectResetFreq ....    20
 Integral Threshold     Thresh          ....  2.500e-11 Eh
 Primitive CutOff       TCut            ....  2.500e-12 Eh

Convergence Tolerance:
 Convergence Check Mode ConvCheckMode   .... Total+1el-Energy
 Convergence forced     ConvForced      .... 0
 Energy Change          TolE            ....  1.000e-08 Eh
 1-El. energy change                    ....  1.000e-05 Eh
 Orbital Gradient       TolG            ....  1.000e-05
 Orbital Rotation angle TolX            ....  1.000e-05
 DIIS Error             TolErr          ....  5.000e-07


Diagonalization of the overlap matrix:
Smallest eigenvalue                        ... 5.415e-04
Time for diagonalization                   ...    0.103 sec
Threshold for overlap eigenvalues          ... 1.000e-08
Number of eigenvalues below threshold      ... 0
Time for construction of square roots      ...    0.013 sec
Total time needed                          ...    0.118 sec

Time for model grid setup =    0.489 sec

------------------------------
INITIAL GUESS: MODEL POTENTIAL
------------------------------
Loading Hartree-Fock densities                     ... done
Calculating cut-offs                               ... done
Initializing the effective Hamiltonian             ... done
Setting up the integral package (SHARK)            ... done
Starting the Coulomb interaction                   ... done (   0.3 sec)
Reading the grid                                   ... done
Mapping shells                                     ... done
Starting the XC term evaluation                    ... done (   0.1 sec)
  promolecular density results
     # of electrons  =     42.000227782
     EX              =    -32.603479651
     EC              =     -1.376915708
     EX+EC           =    -33.980395359
Transforming the Hamiltonian                       ... done (   0.0 sec)
Diagonalizing the Hamiltonian                      ... done (   0.0 sec)
Back transforming the eigenvectors                 ... done (   0.0 sec)
Now organizing SCF variables                       ... done
                      ------------------
                      INITIAL GUESS DONE (   1.0 sec)
                      ------------------
-------------------
DFT GRID GENERATION
-------------------

General Integration Accuracy     IntAcc      ... 4.388
Radial Grid Type                 RadialGrid  ... OptM3 with GC (2021)
Angular Grid (max. ang.)         AngularGrid ... 4 (Lebedev-302)
Angular grid pruning method      GridPruning ... 4 (adaptive)
Weight generation scheme         WeightScheme... Becke
Basis function cutoff            BFCut       ... 1.0000e-11
Integration weight cutoff        WCut        ... 1.0000e-14
Angular grids for H and He will be reduced by one unit
Partially contracted basis set               ... off
Rotationally invariant grid construction     ... off

Total number of grid points                  ...    55580
Total number of batches                      ...      873
Average number of points per batch           ...       63
Average number of grid points per atom       ...     4632
Time for grid setup =    1.048 sec

--------------------
COSX GRID GENERATION
--------------------

GRIDX 1
-------
General Integration Accuracy     IntAcc      ... 3.816
Radial Grid Type                 RadialGrid  ... OptM3 with GC (2021)
Angular Grid (max. ang.)         AngularGrid ... 1 (Lebedev-50)
Angular grid pruning method      GridPruning ... 4 (adaptive)
Weight generation scheme         WeightScheme... Becke
Basis function cutoff            BFCut       ... 1.0000e-11
Integration weight cutoff        WCut        ... 1.0000e-14
Angular grids for H and He will be reduced by one unit
Partially contracted basis set               ... on
Rotationally invariant grid construction     ... off

Total number of grid points                  ...     7140
Total number of batches                      ...      114
Average number of points per batch           ...       62
Average number of grid points per atom       ...      595
UseSFitting                                  ... on

GRIDX 2
-------
General Integration Accuracy     IntAcc      ... 4.020
Radial Grid Type                 RadialGrid  ... OptM3 with GC (2021)
Angular Grid (max. ang.)         AngularGrid ... 2 (Lebedev-110)
Angular grid pruning method      GridPruning ... 4 (adaptive)
Weight generation scheme         WeightScheme... Becke
Basis function cutoff            BFCut       ... 1.0000e-11
Integration weight cutoff        WCut        ... 1.0000e-14
Angular grids for H and He will be reduced by one unit
Partially contracted basis set               ... on
Rotationally invariant grid construction     ... off

Total number of grid points                  ...    15524
Total number of batches                      ...      248
Average number of points per batch           ...       62
Average number of grid points per atom       ...     1294
UseSFitting                                  ... on

GRIDX 3
-------
General Integration Accuracy     IntAcc      ... 4.338
Radial Grid Type                 RadialGrid  ... OptM3 with GC (2021)
Angular Grid (max. ang.)         AngularGrid ... 3 (Lebedev-194)
Angular grid pruning method      GridPruning ... 4 (adaptive)
Weight generation scheme         WeightScheme... Becke
Basis function cutoff            BFCut       ... 1.0000e-11
Integration weight cutoff        WCut        ... 1.0000e-14
Angular grids for H and He will be reduced by one unit
Partially contracted basis set               ... on
Rotationally invariant grid construction     ... off

Total number of grid points                  ...    34137
Total number of batches                      ...      540
Average number of points per batch           ...       63
Average number of grid points per atom       ...     2845
UseSFitting                                  ... on

Time for X-Grid setup             =    0.985 sec

--------------
SCF ITERATIONS
--------------
ITER       Energy         Delta-E        Max-DP      RMS-DP      [F,P]     Damp
               ***  Starting incremental Fock matrix formation  ***
  0   -231.9559032028   0.000000000000 0.03999999  0.00229157  0.1134303 0.7000
  1   -232.0190423685  -0.063139165706 0.03156671  0.00173892  0.0643976 0.7000
                               ***Turning on DIIS***
  2   -232.0475319387  -0.028489570203 0.05770445  0.00303712  0.0290492 0.0000
  3   -232.0880837421  -0.040551803420 0.02310998  0.00119163  0.0375087 0.0000
  4   -232.0983011626  -0.010217420528 0.00884464  0.00035239  0.0076169 0.0000
                      *** Initiating the SOSCF procedure ***
                           *** Shutting down DIIS ***
                      *** Re-Reading the Fockian *** 
                      *** Removing any level shift *** 
ITER      Energy       Delta-E        Grad      Rot      Max-DP    RMS-DP
  5   -232.09881050  -0.0005093333  0.000835  0.000835  0.002916  0.000119
               *** Restarting incremental Fock matrix formation ***
  6   -232.09878556   0.0000249310  0.000334  0.000593  0.001552  0.000065
  7   -232.09878623  -0.0000006699  0.000252  0.000204  0.000248  0.000016
  8   -232.09878743  -0.0000011938  0.000030  0.000024  0.000063  0.000003
  9   -232.09878744  -0.0000000150  0.000013  0.000008  0.000017  0.000001
                 **** Energy Check signals convergence ****
              ***Rediagonalizing the Fockian in SOSCF/NRSCF***

               *****************************************************
               *                     SUCCESS                       *
               *           SCF CONVERGED AFTER  10 CYCLES          *
               *****************************************************

Old exchange energy                            =     -6.651586737 Eh
New exchange energy                            =     -6.651600213 Eh
Exchange energy change after final integration =     -0.000013476 Eh
Total energy after final integration           =   -232.098800921 Eh
Final COS-X integration done in                =     5.042 sec

----------------
TOTAL SCF ENERGY
----------------

Total Energy       :         -232.09880092 Eh           -6315.72946 eV

Components:
Nuclear Repulsion  :          202.97974679 Eh            5523.35971 eV
Electronic Energy  :         -435.07854772 Eh          -11839.08917 eV
One Electron Energy:         -713.40121920 Eh          -19412.63409 eV
Two Electron Energy:          278.32267149 Eh            7573.54492 eV
Max COSX asymmetry :            0.00000057 Eh               0.00002 eV

Virial components:
Potential Energy   :         -462.71425435 Eh          -12591.09498 eV
Kinetic Energy     :          230.61545343 Eh            6275.36552 eV
Virial Ratio       :            2.00643213


DFT components:
N(Alpha)           :       20.999994117878 electrons
N(Beta)            :       20.999994117878 electrons
N(Total)           :       41.999988235755 electrons
E(X)               :      -26.384622294688 Eh       
E(C)               :       -1.633923852487 Eh       
E(XC)              :      -28.018546147175 Eh       
DFET-embed. en.    :        0.000000000000 Eh       

---------------
SCF CONVERGENCE
---------------

  Last Energy change         ...   -7.7389e-10  Tolerance :   1.0000e-08
  Last MAX-Density change    ...    3.1086e-15  Tolerance :   1.0000e-07
  Last RMS-Density change    ...    5.8633e-17  Tolerance :   5.0000e-09
  Last Orbital Gradient      ...    2.0417e-06  Tolerance :   1.0000e-05
  Last Orbital Rotation      ...    7.5036e-06  Tolerance :   1.0000e-05

             **** THE GBW FILE WAS UPDATED (sxt_benzeno.gbw) ****
             **** DENSITY sxt_benzeno.scfp WAS UPDATED ****
             **** ENERGY FILE WAS UPDATED (sxt_benzeno.en.tmp) ****
             **** THE GBW FILE WAS UPDATED (sxt_benzeno.gbw) ****
             **** DENSITY sxt_benzeno.scfp WAS UPDATED ****
----------------
ORBITAL ENERGIES
----------------

  NO   OCC          E(Eh)            E(eV) 
   0   2.0000     -10.179485      -276.9979 
   1   2.0000     -10.179303      -276.9929 
   2   2.0000     -10.179283      -276.9924 
   3   2.0000     -10.178863      -276.9809 
   4   2.0000     -10.178841      -276.9803 
   5   2.0000     -10.178652      -276.9752 
   6   2.0000      -0.841188       -22.8899 
   7   2.0000      -0.735804       -20.0223 
   8   2.0000      -0.735743       -20.0206 
   9   2.0000      -0.594103       -16.1664 
  10   2.0000      -0.594046       -16.1648 
  11   2.0000      -0.514554       -14.0017 
  12   2.0000      -0.457067       -12.4374 
  13   2.0000      -0.433767       -11.8034 
  14   2.0000      -0.413437       -11.2502 
  15   2.0000      -0.413349       -11.2478 
  16   2.0000      -0.355034        -9.6610 
  17   2.0000      -0.336673        -9.1613 
  18   2.0000      -0.336671        -9.1613 
  19   2.0000      -0.242802        -6.6070 
  20   2.0000      -0.242758        -6.6058 
  21   0.0000       0.005398         0.1469 
  22   0.0000       0.005420         0.1475 
  23   0.0000       0.096798         2.6340 
  24   0.0000       0.149974         4.0810 
  25   0.0000       0.150043         4.0829 
  26   0.0000       0.163489         4.4488 
  27   0.0000       0.185332         5.0431 
  28   0.0000       0.185350         5.0436 
  29   0.0000       0.194877         5.3029 
  30   0.0000       0.303316         8.2536 
  31   0.0000       0.303390         8.2557 
  32   0.0000       0.319721         8.7000 
  33   0.0000       0.319775         8.7015 
  34   0.0000       0.472083        12.8460 
  35   0.0000       0.531170        14.4539 
  36   0.0000       0.548514        14.9258 
  37   0.0000       0.554099        15.0778 
  38   0.0000       0.561358        15.2753 
  39   0.0000       0.602237        16.3877 
  40   0.0000       0.605554        16.4779 
  41   0.0000       0.605568        16.4783 
  42   0.0000       0.605594        16.4791 
  43   0.0000       0.605631        16.4801 
  44   0.0000       0.635748        17.2996 
  45   0.0000       0.635791        17.3008 
  46   0.0000       0.670385        18.2421 
  47   0.0000       0.670412        18.2428 
  48   0.0000       0.745543        20.2873 
  49   0.0000       0.827158        22.5081 
  50   0.0000       0.827312        22.5123 
  51   0.0000       0.831717        22.6322 
  52   0.0000       0.851713        23.1763 
  53   0.0000       0.851896        23.1813 
  54   0.0000       0.932382        25.3714 
  55   0.0000       0.942569        25.6486 
  56   0.0000       0.942606        25.6496 
  57   0.0000       0.959914        26.1206 
  58   0.0000       1.084380        29.5075 
  59   0.0000       1.084488        29.5104 
  60   0.0000       1.131880        30.8000 
  61   0.0000       1.131972        30.8025 
  62   0.0000       1.206264        32.8241 
  63   0.0000       1.265467        34.4351 
  64   0.0000       1.304800        35.5054 
  65   0.0000       1.409175        38.3456 
  66   0.0000       1.409260        38.3479 
  67   0.0000       1.430538        38.9269 
  68   0.0000       1.430564        38.9276 
  69   0.0000       1.436595        39.0917 
  70   0.0000       1.436731        39.0954 
  71   0.0000       1.756823        47.8056 
  72   0.0000       1.764726        48.0206 
  73   0.0000       1.822306        49.5875 
  74   0.0000       1.894508        51.5522 
  75   0.0000       1.934265        52.6340 
  76   0.0000       1.934603        52.6432 
  77   0.0000       1.968869        53.5757 
  78   0.0000       1.968955        53.5780 
  79   0.0000       1.979237        53.8578 
  80   0.0000       1.979333        53.8604 
  81   0.0000       2.023330        55.0576 
  82   0.0000       2.073618        56.4260 
  83   0.0000       2.073715        56.4287 
  84   0.0000       2.296746        62.4976 
  85   0.0000       2.296842        62.5002 
  86   0.0000       2.364401        64.3386 
  87   0.0000       2.364807        64.3497 
  88   0.0000       2.376795        64.6759 
  89   0.0000       2.418986        65.8240 
  90   0.0000       2.424454        65.9727 
  91   0.0000       2.424585        65.9763 
  92   0.0000       2.444554        66.5197 
  93   0.0000       2.444627        66.5217 
  94   0.0000       2.500218        68.0344 
  95   0.0000       2.500282        68.0361 
  96   0.0000       2.536848        69.0312 
  97   0.0000       2.591902        70.5293 
  98   0.0000       2.609535        71.0091 
  99   0.0000       2.609919        71.0195 
 100   0.0000       2.654297        72.2271 
 101   0.0000       2.780112        75.6507 
 102   0.0000       2.816201        76.6327 
 103   0.0000       2.816449        76.6395 
 104   0.0000       3.059898        83.2641 
 105   0.0000       3.060324        83.2756 
 106   0.0000       3.196522        86.9818 
 107   0.0000       3.253247        88.5253 
 108   0.0000       3.265273        88.8526 
 109   0.0000       3.265821        88.8675 
 110   0.0000       3.404011        92.6279 
 111   0.0000       3.533394        96.1485 
 112   0.0000       3.534111        96.1680 
 113   0.0000       3.989802       108.5680 
------------------
MOLECULAR ORBITALS
------------------
                      0         1         2         3         4         5   
                 -10.17949 -10.17930 -10.17928 -10.17886 -10.17884 -10.17865
                   2.00000   2.00000   2.00000   2.00000   2.00000   2.00000
                  --------  --------  --------  --------  --------  --------
  0C   1s         0.402597  0.048283 -0.553010  0.001878 -0.594486  0.408087
  0C   2s         0.012950  0.001682 -0.019694  0.000099 -0.022901  0.016854
  0C   1pz       -0.000016  0.000356  0.000019  0.000263 -0.000008 -0.000006
  0C   1px       -0.000452  0.000969  0.000147  0.000731 -0.000236  0.000225
  0C   1py        0.000642  0.000647 -0.000110  0.000453  0.000357 -0.000418
  0C   3s        -0.004330 -0.000826  0.009513 -0.000482  0.020922 -0.028814
  0C   2pz        0.000030 -0.000699 -0.000033 -0.000696  0.000042 -0.000035
  0C   2px        0.000472 -0.001977  0.000555 -0.002055  0.002705 -0.005829
  0C   2py       -0.000569 -0.001147 -0.001171 -0.000985 -0.004287  0.009544
  0C   1dz2      -0.000026 -0.000012  0.000143  0.000001  0.000868 -0.000782
  0C   1dxz      -0.000171  0.000154  0.000100  0.000141 -0.000448  0.000451
  0C   1dyz      -0.000096 -0.000254  0.000046 -0.000214 -0.000265  0.000284
  0C   1dx2y2    -0.000306  0.000846  0.000301  0.000751 -0.000028  0.000072
  0C   1dxy      -0.000542 -0.000474  0.000486 -0.000369 -0.000028  0.000215
  1C   1s         0.439695 -0.476442 -0.317329 -0.491274  0.295841 -0.374552
  1C   2s         0.014352 -0.017065 -0.011424 -0.019019  0.011517 -0.015636
  1C   1pz        0.000190  0.000070 -0.000170  0.000025 -0.000183  0.000124
  1C   1px        0.000319  0.000514 -0.000905 -0.000245 -0.000785  0.000230
  1C   1py        0.000673 -0.000413  0.000438  0.000566  0.000151  0.000401
  1C   3s        -0.005558  0.008833  0.006434  0.017881 -0.011035  0.028042
  1C   2pz       -0.000095 -0.000542  0.000004 -0.000923  0.001009 -0.002779
  1C   2px       -0.000128 -0.001714  0.001198 -0.000854  0.002985 -0.004875
  1C   2py       -0.000391 -0.000577 -0.001973 -0.004440  0.001427 -0.009510
  1C   1dz2       0.000007  0.000063  0.000140  0.000788 -0.000423  0.000794
  1C   1dxz      -0.000001 -0.000198  0.000201 -0.000230  0.000440 -0.000387
  1C   1dyz       0.000195 -0.000174 -0.000105 -0.000174  0.000113 -0.000129
  1C   1dx2y2    -0.000335 -0.000175  0.000834  0.000333  0.000631 -0.000160
  1C   1dxy       0.000531 -0.000656  0.000222  0.000408  0.000291  0.000310
  2C   1s         0.424316 -0.491000  0.288192  0.522996  0.247827  0.388670
  2C   2s         0.013781 -0.017550  0.010317  0.020210  0.009604  0.016167
  2C   1pz        0.000187  0.000048  0.000174 -0.000045 -0.000169 -0.000132
  2C   1px        0.000745 -0.000155  0.000024 -0.000409 -0.000164 -0.000462
  2C   1py       -0.000054  0.000559  0.001067  0.000401 -0.000792 -0.000062
  2C   3s        -0.005061  0.008939 -0.005745 -0.018770 -0.008629 -0.028508
  2C   2pz       -0.000124 -0.000515 -0.000040  0.001032  0.000819  0.002873
  2C   2px       -0.000548 -0.001285  0.001089  0.004542  0.001837  0.010759
  2C   2py        0.000118 -0.001121 -0.002079 -0.001026  0.002115  0.000282
  2C   1dz2       0.000020  0.000054 -0.000129 -0.000815 -0.000339 -0.000812
  2C   1dxz       0.000176 -0.000235 -0.000001  0.000294  0.000262  0.000305
  2C   1dyz      -0.000072 -0.000081 -0.000243  0.000138  0.000318  0.000288
  2C   1dx2y2     0.000615 -0.000446  0.000319 -0.000120 -0.000132 -0.000349
  2C   1dxy       0.000095 -0.000476 -0.000844 -0.000450  0.000707 -0.000032
  3C   1s         0.382136 -0.004784  0.574833 -0.040827 -0.571688 -0.430361
  3C   2s         0.012246 -0.000203  0.020416 -0.001583 -0.021978 -0.017736
  3C   1pz       -0.000011  0.000348  0.000013 -0.000274  0.000014  0.000012
  3C   1px        0.000368  0.000973  0.000146 -0.000746  0.000249  0.000293
  3C   1py       -0.000679  0.000589 -0.000152 -0.000496 -0.000322 -0.000406
  3C   3s        -0.004194  0.000042 -0.009829  0.001774  0.019491  0.029679
  3C   2pz        0.000022 -0.000676 -0.000020  0.000714 -0.000050 -0.000077
  3C   2px       -0.000290 -0.001889  0.000603  0.001687 -0.002469 -0.006089
  3C   2py        0.000617 -0.001155 -0.001134  0.001712  0.003799  0.009644
  3C   1dz2      -0.000027 -0.000008 -0.000149  0.000059  0.000829  0.000820
  3C   1dxz      -0.000149 -0.000152 -0.000101  0.000115 -0.000431 -0.000483
  3C   1dyz      -0.000111  0.000246 -0.000057 -0.000241 -0.000245 -0.000280
  3C   1dx2y2    -0.000226 -0.000843 -0.000293  0.000777 -0.000046 -0.000131
  3C   1dxy      -0.000551  0.000421 -0.000522 -0.000383 -0.000010 -0.000195
  4C   1s         0.383502  0.486395  0.322275 -0.486457  0.290456  0.426226
  4C   2s         0.012323  0.017252  0.011494 -0.018687  0.011216  0.017609
  4C   1pz       -0.000188  0.000051 -0.000180 -0.000013  0.000177  0.000131
  4C   1px       -0.000317  0.000480 -0.000919  0.000269  0.000781  0.000247
  4C   1py       -0.000662 -0.000477  0.000394 -0.000534 -0.000178  0.000425
  4C   3s        -0.004309 -0.008446 -0.006159  0.016307 -0.009922 -0.029774
  4C   2pz        0.000162 -0.000484  0.000040  0.000741 -0.000885 -0.002876
  4C   2px        0.000247 -0.001611  0.001243  0.000531 -0.002784 -0.005061
  4C   2py        0.000614 -0.000383 -0.001837  0.003835 -0.000995 -0.009850
  4C   1dz2       0.000025 -0.000029 -0.000117  0.000736 -0.000387 -0.000866
  4C   1dxz      -0.000009  0.000181 -0.000209 -0.000203  0.000423  0.000421
  4C   1dyz       0.000175  0.000181  0.000109 -0.000173  0.000112  0.000148
  4C   1dx2y2    -0.000309  0.000146 -0.000844  0.000360  0.000622  0.000163
  4C   1dxy       0.000492  0.000700 -0.000190  0.000371  0.000320 -0.000318
  5C   1s         0.401560  0.532103 -0.257448  0.486847  0.276876 -0.407239
  5C   2s         0.012994  0.018938 -0.009251  0.018760  0.010751 -0.016906
  5C   1pz       -0.000197  0.000029  0.000165  0.000029  0.000176 -0.000127
  5C   1px       -0.000727 -0.000202 -0.000002  0.000383  0.000184 -0.000490
  5C   1py       -0.000038  0.000528  0.001052 -0.000447  0.000814  0.000005
  5C   3s        -0.004883 -0.009642  0.005117 -0.016629 -0.010177  0.029250
  5C   2pz        0.000140 -0.000511 -0.000055 -0.000814 -0.000965  0.002893
  5C   2px        0.000490 -0.001324  0.001022 -0.003780 -0.002374  0.010955
  5C   2py        0.000061 -0.001041 -0.002039  0.001124 -0.002165  0.000110
  5C   1dz2       0.000012 -0.000068  0.000111 -0.000758 -0.000379  0.000850
  5C   1dxz       0.000160  0.000251  0.000014  0.000265  0.000282 -0.000311
  5C   1dyz      -0.000086  0.000071  0.000240  0.000110  0.000334 -0.000281
  5C   1dx2y2     0.000589  0.000491 -0.000292 -0.000104 -0.000141  0.000357
  5C   1dxy       0.000019  0.000450  0.000830 -0.000480  0.000722  0.000097
  6H   1s        -0.000957 -0.000109  0.001264 -0.000009  0.001117 -0.000851
  6H   2s         0.001726  0.000137 -0.001199 -0.000046 -0.000806 -0.000995
  6H   1pz       -0.000004  0.000023  0.000006  0.000029  0.000004 -0.000004
  6H   1px       -0.000381  0.000020  0.000548  0.000080  0.000572 -0.000373
  6H   1py        0.000607  0.000116 -0.000871  0.000052 -0.000923  0.000592
  7H   1s        -0.001031  0.001080  0.000717  0.000914 -0.000546  0.000778
  7H   2s         0.001771 -0.000976 -0.000605 -0.000618  0.000338  0.001064
  7H   1pz        0.000196 -0.000216 -0.000158 -0.000233  0.000122 -0.000159
  7H   1px        0.000342 -0.000351 -0.000317 -0.000439  0.000163 -0.000279
  7H   1py        0.000678 -0.000785 -0.000475 -0.000747  0.000507 -0.000550
  8H   1s        -0.000998  0.001120 -0.000654 -0.000980 -0.000454 -0.000804
  8H   2s         0.001756 -0.001008  0.000582  0.000663  0.000345 -0.001037
  8H   1pz        0.000193 -0.000228  0.000146  0.000250  0.000103  0.000168
  8H   1px        0.000732 -0.000885  0.000511  0.000920  0.000444  0.000641
  8H   1py        0.000006  0.000025  0.000079  0.000060 -0.000082  0.000004
  9H   1s        -0.000909  0.000012 -0.001314  0.000083  0.001069  0.000891
  9H   2s         0.001662  0.000013  0.001283 -0.000008 -0.000846  0.000975
  9H   1pz        0.000003  0.000023  0.000007 -0.000030 -0.000005 -0.000004
  9H   1px        0.000355  0.000058  0.000566 -0.000122 -0.000549 -0.000388
  9H   1py       -0.000577  0.000049 -0.000906  0.000010  0.000890  0.000630
 10H   1s        -0.000903 -0.001114 -0.000735  0.000908 -0.000538 -0.000876
 10H   2s         0.001672  0.001080  0.000666 -0.000736  0.000415 -0.000982
 10H   1pz       -0.000170 -0.000220 -0.000160  0.000232 -0.000121 -0.000183
 10H   1px       -0.000296 -0.000359 -0.000319  0.000437 -0.000159 -0.000320
 10H   1py       -0.000588 -0.000800 -0.000482  0.000743 -0.000501 -0.000632
 11H   1s        -0.000944 -0.001211  0.000587 -0.000902 -0.000515  0.000836
 11H   2s         0.001686  0.001153 -0.000484  0.000714  0.000318  0.001021
 11H   1pz       -0.000183 -0.000248  0.000133 -0.000236 -0.000117  0.000179
 11H   1px       -0.000689 -0.000955  0.000458 -0.000858 -0.000493  0.000673
 11H   1py       -0.000011  0.000021  0.000076 -0.000061  0.000083  0.000012
                      6         7         8         9        10        11   
                  -0.84119  -0.73580  -0.73574  -0.59410  -0.59405  -0.51455
                   2.00000   2.00000   2.00000   2.00000   2.00000   2.00000
                  --------  --------  --------  --------  --------  --------
  0C   1s         0.093491  0.124882  0.034935 -0.098721  0.023036 -0.008469
  0C   2s        -0.176321 -0.242247 -0.067762  0.199725 -0.046591  0.018181
  0C   1pz       -0.000342 -0.009124  0.032006  0.013187  0.057814 -0.001006
  0C   1px       -0.032184 -0.036598  0.085508  0.002119  0.168176 -0.104305
  0C   1py        0.051825  0.003514  0.060704  0.079918  0.086609  0.167761
  0C   3s        -0.110604 -0.179244 -0.050150  0.149916 -0.035058  0.027354
  0C   2pz       -0.000049 -0.001392  0.005030  0.003303  0.015198 -0.000339
  0C   2px       -0.004637 -0.001452  0.014606 -0.014595  0.047637 -0.035077
  0C   2py        0.007492 -0.006301  0.007584  0.045272  0.017040  0.056391
  0C   1dz2       0.006962  0.006596  0.001874 -0.002684  0.000654 -0.000051
  0C   1dxz      -0.003713 -0.004498  0.000427  0.000962  0.001226  0.000993
  0C   1dyz      -0.002237 -0.001796 -0.003107 -0.000133 -0.002204  0.000649
  0C   1dx2y2    -0.000315 -0.003494  0.008111  0.000623  0.007659  0.001510
  0C   1dxy      -0.000699 -0.001210 -0.004808 -0.003072 -0.003122  0.003074
  1C   1s         0.093456  0.092666 -0.090692  0.029394 -0.097040 -0.008477
  1C   2s        -0.176268 -0.179765  0.175941 -0.059471  0.196332  0.018198
  1C   1pz        0.015343  0.016184  0.008152 -0.034179  0.007538  0.049581
  1C   1px        0.026771  0.075844  0.062985 -0.175786 -0.021991  0.086695
  1C   1py        0.052634 -0.023984 -0.053230  0.076403  0.084791  0.170310
  1C   3s        -0.110543 -0.133015  0.130171 -0.044620  0.147452  0.027349
  1C   2pz        0.002210  0.001026  0.002762 -0.011116  0.009062  0.016684
  1C   2px        0.003866  0.009261  0.012466 -0.049868  0.006586  0.029159
  1C   2py        0.007561 -0.008979 -0.003234  0.012693  0.046576  0.057334
  1C   1dz2       0.007116  0.004705 -0.005540  0.001281 -0.002222 -0.000448
  1C   1dxz      -0.003407 -0.004501  0.000363  0.002058  0.001864  0.000220
  1C   1dyz      -0.001607 -0.000795  0.000652 -0.000343  0.001399 -0.000960
  1C   1dx2y2    -0.000481 -0.006793 -0.004698  0.007142  0.000706  0.001910
  1C   1dxy       0.001669 -0.001437 -0.006199  0.004008  0.003036 -0.002899
  2C   1s         0.093454 -0.032151 -0.125623  0.069313  0.073991 -0.008506
  2C   2s        -0.176257  0.062365  0.243699 -0.140231 -0.149700  0.018261
  2C   1pz        0.015646 -0.017131 -0.001784 -0.032928  0.006943  0.050571
  2C   1px        0.058948  0.000108 -0.023172 -0.037536 -0.055397  0.190914
  2C   1py        0.000823 -0.108867  0.027622 -0.146621  0.136152  0.002789
  2C   3s        -0.110579  0.046118  0.180336 -0.105284 -0.112378  0.027386
  2C   2pz        0.002265 -0.002155  0.001801 -0.013775 -0.003688  0.017026
  2C   2px        0.008532  0.002024  0.004242 -0.029271 -0.035298  0.064263
  2C   2py        0.000103 -0.017034  0.004449 -0.038699  0.035400  0.000951
  2C   1dz2       0.007123 -0.001176 -0.007187  0.002109  0.001432 -0.000466
  2C   1dxz      -0.003012  0.001849  0.002116 -0.000462 -0.002100 -0.000778
  2C   1dyz      -0.002221  0.003148  0.001791  0.001372 -0.001846  0.000584
  2C   1dx2y2     0.001650 -0.001522 -0.003341 -0.001929 -0.001237 -0.003458
  2C   1dxy       0.000623  0.009245 -0.003153  0.006190 -0.005753 -0.000256
  3C   1s         0.093493 -0.124878 -0.034925 -0.098728  0.023047 -0.008436
  3C   2s        -0.176325  0.242239  0.067741  0.199737 -0.046619  0.018116
  3C   1pz        0.000278 -0.009033  0.032032 -0.013076 -0.057822  0.001002
  3C   1px        0.032259 -0.036711  0.085502 -0.002137 -0.168204  0.104286
  3C   1py       -0.051778  0.003446  0.060670 -0.079906 -0.086532 -0.167749
  3C   3s        -0.110598  0.179231  0.050156  0.149938 -0.035046  0.027261
  3C   2pz        0.000032 -0.001366  0.005039 -0.003288 -0.015201  0.000344
  3C   2px        0.004632 -0.001456  0.014602  0.014606 -0.047659  0.035080
  3C   2py       -0.007488 -0.006313  0.007596 -0.045260 -0.017028 -0.056397
  3C   1dz2       0.006962 -0.006597 -0.001871 -0.002685  0.000648 -0.000051
  3C   1dxz      -0.003710  0.004496 -0.000418  0.000965  0.001210  0.001005
  3C   1dyz      -0.002243  0.001795  0.003113 -0.000143 -0.002210  0.000631
  3C   1dx2y2    -0.000323  0.003502 -0.008110  0.000621  0.007660  0.001509
  3C   1dxy      -0.000696  0.001207  0.004806 -0.003071 -0.003116  0.003080
  4C   1s         0.093500 -0.092694  0.090652  0.029425 -0.097004 -0.008508
  4C   2s        -0.176347  0.179818 -0.175860 -0.059534  0.196255  0.018261
  4C   1pz       -0.015314  0.016147  0.008169  0.034145 -0.007564 -0.049576
  4C   1px       -0.026804  0.075916  0.062953  0.175863  0.022003 -0.086780
  4C   1py       -0.052651 -0.024016 -0.053212 -0.076434 -0.084766 -0.170344
  4C   3s        -0.110595  0.133025 -0.130112 -0.044675  0.147354  0.027442
  4C   2pz       -0.002205  0.001008  0.002759  0.011100 -0.009070 -0.016679
  4C   2px       -0.003870  0.009252  0.012454  0.049877 -0.006631 -0.029166
  4C   2py       -0.007561 -0.009009 -0.003249 -0.012693 -0.046563 -0.057333
  4C   1dz2       0.007121 -0.004708  0.005539  0.001280 -0.002222 -0.000446
  4C   1dxz      -0.003402  0.004493 -0.000362  0.002051  0.001856  0.000223
  4C   1dyz      -0.001606  0.000795 -0.000650 -0.000343  0.001401 -0.000955
  4C   1dx2y2    -0.000481  0.006798  0.004697  0.007147  0.000711  0.001905
  4C   1dxy       0.001669  0.001438  0.006197  0.004010  0.003033 -0.002900
  5C   1s         0.093490  0.032201  0.125584  0.069329  0.073972 -0.008498
  5C   2s        -0.176327 -0.062465 -0.243625 -0.140266 -0.149662  0.018248
  5C   1pz       -0.015610 -0.017105 -0.001730  0.032936 -0.006855 -0.050585
  5C   1px       -0.058993  0.000082 -0.023216  0.037475  0.055285 -0.190835
  5C   1py       -0.000842 -0.108927  0.027559  0.146689 -0.136157 -0.002819
  5C   3s        -0.110616 -0.046163 -0.180275 -0.105311 -0.112343  0.027383
  5C   2pz       -0.002253 -0.002137  0.001820  0.013777  0.003720 -0.017039
  5C   2px       -0.008523  0.002058  0.004243  0.029275  0.035295 -0.064262
  5C   2py       -0.000103 -0.017038  0.004444  0.038725 -0.035366 -0.000963
  5C   1dz2       0.007128  0.001178  0.007185  0.002106  0.001431 -0.000458
  5C   1dxz      -0.003010 -0.001848 -0.002116 -0.000469 -0.002103 -0.000766
  5C   1dyz      -0.002216 -0.003142 -0.001787  0.001369 -0.001837  0.000586
  5C   1dx2y2     0.001651  0.001526  0.003344 -0.001925 -0.001229 -0.003470
  5C   1dxy       0.000623 -0.009249  0.003150  0.006194 -0.005755 -0.000258
  6H   1s        -0.037091 -0.077823 -0.021767  0.114036 -0.026580  0.109593
  6H   2s        -0.007844 -0.021550 -0.006019  0.047957 -0.011162  0.070554
  6H   1pz       -0.000019 -0.000133  0.000347  0.000250  0.000904  0.000022
  6H   1px       -0.002119 -0.003985 -0.000051  0.004686  0.001573  0.002664
  6H   1py        0.003409  0.005794  0.002284 -0.006220  0.003112 -0.004285
  7H   1s        -0.037045 -0.057691  0.056484 -0.033910  0.111988  0.109511
  7H   2s        -0.007824 -0.015963  0.015630 -0.014263  0.047091  0.070498
  7H   1pz        0.001007  0.001440 -0.001144  0.000118 -0.002052 -0.001264
  7H   1px        0.001760  0.003046 -0.001460 -0.001625 -0.004144 -0.002212
  7H   1py        0.003462  0.004071 -0.004836  0.003467 -0.006127 -0.004353
  8H   1s        -0.037059  0.020020  0.078269 -0.080005 -0.085413  0.109596
  8H   2s        -0.007847  0.005547  0.021676 -0.033659 -0.035919  0.070534
  8H   1pz        0.001026 -0.000636 -0.001762  0.001060  0.001797 -0.001289
  8H   1px        0.003877 -0.001684 -0.006847  0.005383  0.005504 -0.004880
  8H   1py        0.000056 -0.001233  0.000212 -0.002230  0.002242 -0.000069
  9H   1s        -0.037092  0.077816  0.021779  0.114026 -0.026651  0.109550
  9H   2s        -0.007842  0.021544  0.006030  0.047951 -0.011205  0.070525
  9H   1pz        0.000022 -0.000138  0.000345 -0.000255 -0.000902 -0.000029
  9H   1px        0.002120 -0.003986 -0.000052 -0.004686 -0.001570 -0.002662
  9H   1py       -0.003408  0.005793  0.002284  0.006220 -0.003115  0.004284
 10H   1s        -0.037062  0.057708 -0.056458 -0.033937  0.111942  0.109574
 10H   2s        -0.007825  0.015954 -0.015629 -0.014277  0.047060  0.070541
 10H   1pz       -0.001007  0.001441 -0.001143 -0.000119  0.002051  0.001265
 10H   1px       -0.001761  0.003048 -0.001460  0.001626  0.004144  0.002212
 10H   1py       -0.003463  0.004072 -0.004834 -0.003469  0.006125  0.004356
 11H   1s        -0.037054 -0.020034 -0.078203 -0.079979 -0.085322  0.109528
 11H   2s        -0.007840 -0.005536 -0.021655 -0.033647 -0.035867  0.070490
 11H   1pz       -0.001029 -0.000637 -0.001766 -0.001065 -0.001799  0.001295
 11H   1px       -0.003878 -0.001686 -0.006842 -0.005382 -0.005499  0.004876
 11H   1py       -0.000056 -0.001233  0.000211  0.002230 -0.002242  0.000068
                     12        13        14        15        16        17   
                  -0.45707  -0.43377  -0.41344  -0.41335  -0.35503  -0.33667
                   2.00000   2.00000   2.00000   2.00000   2.00000   2.00000
                  --------  --------  --------  --------  --------  --------
  0C   1s         0.058556 -0.000018  0.022762  0.004281  0.000046 -0.001734
  0C   2s        -0.118428  0.000047 -0.051143 -0.009614 -0.000100  0.006519
  0C   1pz        0.000646  0.080498 -0.006222  0.024535  0.211842 -0.072574
  0C   1px        0.069657  0.222898 -0.171129  0.038913 -0.056225 -0.157087
  0C   1py       -0.111951  0.139302  0.246389  0.090728 -0.033110 -0.198157
  0C   3s        -0.149482 -0.000044 -0.099466 -0.018639 -0.000078 -0.007698
  0C   2pz        0.000160  0.026810  0.000769 -0.006776  0.123117 -0.028021
  0C   2px        0.017541  0.074261 -0.042996 -0.027320 -0.032505 -0.070970
  0C   2py       -0.028126  0.046355  0.076902  0.002442 -0.019333 -0.059020
  0C   1dz2       0.002060  0.000014 -0.001516 -0.000250  0.000086  0.001387
  0C   1dxz       0.002553  0.000700 -0.001401  0.001855  0.005076 -0.000264
  0C   1dyz       0.001677 -0.001080 -0.000074 -0.003295 -0.008228  0.003611
  0C   1dx2y2     0.005565  0.003760 -0.004818  0.010528 -0.002666 -0.005876
  0C   1dxy       0.011307 -0.001868 -0.004556 -0.006484  0.001328  0.011371
  1C   1s        -0.058617  0.000016  0.014998 -0.017543 -0.000006  0.004543
  1C   2s         0.118556 -0.000038 -0.033724  0.039444  0.000015 -0.017138
  1C   1pz        0.032980 -0.041569  0.059797 -0.049502  0.211995  0.061399
  1C   1px        0.057528 -0.237117  0.143798 -0.052622 -0.055170  0.129257
  1C   1py        0.113514  0.132285  0.139796 -0.227039 -0.033551  0.174877
  1C   3s         0.149793  0.000004 -0.065693  0.076653  0.000020  0.020201
  1C   2pz        0.008313 -0.013858  0.012019 -0.019319  0.123168  0.010353
  1C   2px        0.014522 -0.079070  0.010428 -0.042744 -0.032159  0.026527
  1C   2py        0.028520  0.044138  0.058934 -0.051455 -0.019473  0.021717
  1C   1dz2      -0.000633  0.000290 -0.001192  0.000069 -0.004214 -0.001567
  1C   1dxz       0.000263  0.001241 -0.002573 -0.002695 -0.003610  0.000182
  1C   1dyz       0.004087  0.000035  0.001337 -0.001739 -0.007959  0.006588
  1C   1dx2y2    -0.006981  0.003481 -0.010192 -0.004127 -0.000219 -0.012323
  1C   1dxy       0.010308  0.002316 -0.001963 -0.008431  0.002848  0.015410
  2C   1s         0.058605 -0.000053 -0.007617 -0.021813 -0.000032 -0.002821
  2C   2s        -0.118529  0.000116  0.017118  0.049024  0.000084  0.010612
  2C   1pz       -0.033596 -0.039178 -0.037512 -0.069485  0.211814 -0.065623
  2C   1px       -0.127042  0.013942 -0.093555 -0.279696 -0.056037 -0.122291
  2C   1py       -0.001860 -0.271554 -0.081947  0.024725 -0.033140 -0.212086
  2C   3s        -0.149751  0.000177  0.033441  0.095363 -0.000015 -0.012409
  2C   2pz       -0.008445 -0.013038 -0.004537 -0.022718  0.123130 -0.016908
  2C   2px       -0.031917  0.004696 -0.029929 -0.081371 -0.032387 -0.015493
  2C   2py       -0.000547 -0.090462  0.021280 -0.008656 -0.019291 -0.081039
  2C   1dz2       0.000578  0.000279  0.001046  0.000484 -0.004294  0.001436
  2C   1dxz      -0.003844  0.000544  0.000820 -0.002579 -0.008706 -0.002747
  2C   1dyz       0.001474  0.001119  0.003354 -0.000548  0.000263  0.003713
  2C   1dx2y2    -0.012424 -0.000276 -0.002843 -0.005571  0.002398 -0.012714
  2C   1dxy      -0.000768  0.004171  0.011684 -0.004481  0.001496  0.008058
  3C   1s        -0.058557  0.000023 -0.022764 -0.004273  0.000041 -0.001723
  3C   2s         0.118428 -0.000052  0.051148  0.009591 -0.000103  0.006503
  3C   1pz        0.000782  0.080488 -0.006232  0.024592  0.212026  0.072455
  3C   1px        0.069849  0.222941 -0.171178  0.039053 -0.055232  0.157090
  3C   1py       -0.111945  0.139184  0.246342  0.090608 -0.033582  0.198388
  3C   3s         0.149495  0.000097  0.099459  0.018718 -0.000044 -0.007677
  3C   2pz        0.000202  0.026805  0.000818 -0.006737  0.123186  0.027949
  3C   2px        0.017583  0.074236 -0.042990 -0.027321 -0.032211  0.070983
  3C   2py       -0.028124  0.046380  0.076894  0.002471 -0.019375  0.059132
  3C   1dz2      -0.002058 -0.000009  0.001517  0.000252 -0.000082  0.001395
  3C   1dxz      -0.002545 -0.000689  0.001388 -0.001854 -0.005112 -0.000250
  3C   1dyz      -0.001685  0.001086  0.000097  0.003304  0.008214  0.003620
  3C   1dx2y2    -0.005572 -0.003768  0.004826 -0.010532  0.002611 -0.005876
  3C   1dxy      -0.011306  0.001849  0.004550  0.006477 -0.001382  0.011381
  4C   1s         0.058620 -0.000013 -0.014984  0.017549 -0.000014  0.004517
  4C   2s        -0.118563  0.000039  0.033695 -0.039455  0.000020 -0.017082
  4C   1pz        0.032898 -0.041387  0.059727 -0.049495  0.211921 -0.061454
  4C   1px        0.057390 -0.237197  0.143915 -0.052763 -0.056116 -0.129281
  4C   1py        0.113446  0.132396  0.139893 -0.226888 -0.032991 -0.174840
  4C   3s        -0.149777  0.000003  0.065637 -0.076680  0.000063  0.020309
  4C   2pz        0.008294 -0.013801  0.011979 -0.019311  0.123157 -0.010410
  4C   2px        0.014486 -0.079098  0.010444 -0.042810 -0.032489 -0.026530
  4C   2py        0.028529  0.044137  0.058940 -0.051408 -0.019225 -0.021699
  4C   1dz2       0.000632 -0.000285  0.001189 -0.000066  0.004202 -0.001568
  4C   1dxz      -0.000261 -0.001233  0.002565  0.002699  0.003604  0.000189
  4C   1dyz      -0.004087 -0.000034 -0.001343  0.001736  0.007964  0.006580
  4C   1dx2y2     0.006973 -0.003485  0.010202  0.004123  0.000179 -0.012321
  4C   1dxy      -0.010307 -0.002321  0.001960  0.008421 -0.002877  0.015420
  5C   1s        -0.058619  0.000064  0.007602  0.021792 -0.000035 -0.002785
  5C   2s         0.118563 -0.000132 -0.017088 -0.048980  0.000085  0.010534
  5C   1pz       -0.033696 -0.039002 -0.037546 -0.069556  0.212053  0.065376
  5C   1px       -0.126989  0.013983 -0.093697 -0.279579 -0.055187  0.122276
  5C   1py       -0.001823 -0.271702 -0.082003  0.024602 -0.033613  0.212019
  5C   3s         0.149790 -0.000186 -0.033363 -0.095316  0.000055 -0.012575
  5C   2pz       -0.008496 -0.012975 -0.004542 -0.022723  0.123172  0.016761
  5C   2px       -0.031964  0.004696 -0.029949 -0.081406 -0.032265  0.015519
  5C   2py       -0.000526 -0.090490  0.021275 -0.008696 -0.019461  0.081006
  5C   1dz2      -0.000573 -0.000275 -0.001042 -0.000474  0.004288  0.001423
  5C   1dxz       0.003851 -0.000540 -0.000810  0.002592  0.008689 -0.002767
  5C   1dyz      -0.001471 -0.001112 -0.003349  0.000552 -0.000255  0.003697
  5C   1dx2y2     0.012409  0.000277  0.002850  0.005557 -0.002474 -0.012715
  5C   1dxy       0.000770 -0.004180 -0.011692  0.004472 -0.001523  0.008057
  6H   1s        -0.142286  0.000184  0.164505  0.030968  0.000363 -0.064617
  6H   2s        -0.105568  0.000189  0.160404  0.030201  0.000383 -0.075351
  6H   1pz       -0.000027  0.001607 -0.000042  0.000346  0.004570 -0.001193
  6H   1px       -0.003263  0.004456  0.002663  0.001480 -0.001200 -0.004046
  6H   1py        0.005252  0.002770 -0.004683 -0.000271 -0.000732 -0.000824
  7H   1s         0.142095 -0.000227  0.109208 -0.127111  0.000038  0.169515
  7H   2s         0.105399 -0.000201  0.106443 -0.123962  0.000050  0.197674
  7H   1pz       -0.001550 -0.000826 -0.000760  0.001162  0.004569 -0.000862
  7H   1px       -0.002716 -0.004724 -0.000791  0.002502 -0.001193 -0.001154
  7H   1py       -0.005330  0.002653 -0.003524  0.003213 -0.000723 -0.003553
  8H   1s        -0.142067 -0.000120 -0.055611 -0.158096 -0.000318 -0.104807
  8H   2s        -0.105396 -0.000145 -0.054163 -0.154168 -0.000339 -0.122205
  8H   1pz        0.001579 -0.000779  0.000305  0.001379  0.004572  0.000104
  8H   1px        0.005972  0.000289  0.001819  0.004982 -0.001190  0.002443
  8H   1py        0.000087 -0.005420 -0.001084  0.000470 -0.000716 -0.003383
  9H   1s         0.142343 -0.000064 -0.164492 -0.030865  0.000333 -0.064748
  9H   2s         0.105619 -0.000060 -0.160393 -0.030086  0.000350 -0.075496
  9H   1pz       -0.000034  0.001607 -0.000033  0.000349  0.004573  0.001195
  9H   1px       -0.003262  0.004454  0.002662  0.001479 -0.001203  0.004050
  9H   1py        0.005255  0.002773 -0.004684 -0.000267 -0.000708  0.000823
 10H   1s        -0.142011  0.000164 -0.109302  0.127057 -0.000043  0.169545
 10H   2s        -0.105315  0.000137 -0.106536  0.123910 -0.000035  0.197691
 10H   1pz       -0.001550 -0.000823 -0.000762  0.001161  0.004568  0.000861
 10H   1px       -0.002716 -0.004728 -0.000791  0.002498 -0.001208  0.001152
 10H   1py       -0.005327  0.002650 -0.003526  0.003213 -0.000715  0.003555
 11H   1s         0.142039  0.000083  0.055723  0.158046 -0.000374 -0.104822
 11H   2s         0.105361  0.000112  0.054274  0.154106 -0.000409 -0.122208
 11H   1pz        0.001585 -0.000776  0.000309  0.001386  0.004565 -0.000115
 11H   1px        0.005972  0.000286  0.001823  0.004981 -0.001211 -0.002443
 11H   1py        0.000087 -0.005422 -0.001084  0.000467 -0.000723  0.003381
                     18        19        20        21        22        23   
                  -0.33667  -0.24280  -0.24276   0.00540   0.00542   0.09680
                   2.00000   2.00000   2.00000   0.00000   0.00000   0.00000
                  --------  --------  --------  --------  --------  --------
  0C   1s        -0.004245 -0.000041  0.000025 -0.000038  0.000049  0.038314
  0C   2s         0.016001  0.000124 -0.000083  0.000070 -0.000074 -0.062813
  0C   1pz        0.031392 -0.301976  0.117913 -0.154307  0.311843  0.000508
  0C   1px        0.192441  0.079377 -0.031023  0.040610 -0.081911  0.065762
  0C   1py       -0.125536  0.047546 -0.018537  0.024337 -0.049106 -0.105614
  0C   3s        -0.018793 -0.000314  0.000207  0.000164 -0.000471 -0.514468
  0C   2pz        0.011926 -0.216453  0.084515 -0.202939  0.410198  0.001053
  0C   2px        0.047914  0.056668 -0.022106  0.053410 -0.107664  0.149053
  0C   2py       -0.006384  0.034401 -0.013518  0.032236 -0.064595 -0.239531
  0C   1dz2       0.003488 -0.003341 -0.008417 -0.012870 -0.006469 -0.004443
  0C   1dxz       0.004275 -0.007563 -0.011118 -0.016594 -0.013492 -0.003178
  0C   1dyz       0.001253  0.001539 -0.009418 -0.015107  0.001062 -0.002142
  0C   1dx2y2     0.012007  0.002316  0.001660  0.002317  0.003881 -0.008405
  0C   1dxy       0.014879  0.000945  0.004620  0.007202  0.002150 -0.017052
  1C   1s         0.000607  0.000025  0.000006  0.000034  0.000016  0.038434
  1C   2s        -0.002315 -0.000093  0.000011 -0.000116  0.000001 -0.063053
  1C   1pz       -0.032123 -0.253066 -0.202623 -0.192948 -0.289586 -0.031220
  1C   1px       -0.216801  0.066571  0.053340  0.050765  0.076084 -0.054572
  1C   1py        0.154835  0.039814  0.031818  0.030403  0.045521 -0.107499
  1C   3s         0.002796  0.000378 -0.000356  0.000088 -0.000133 -0.515162
  1C   2pz       -0.014043 -0.181493 -0.145200 -0.253805 -0.380912 -0.070867
  1C   2px       -0.086472  0.047508  0.038308  0.066775  0.100133 -0.123863
  1C   2py        0.053279  0.028217  0.023020  0.039617  0.059764 -0.243895
  1C   1dz2       0.000549  0.004854 -0.002084  0.004008 -0.007379 -0.002306
  1C   1dxz       0.003339  0.010841 -0.010145  0.017599 -0.015747  0.001051
  1C   1dyz       0.000989 -0.001973  0.009992 -0.016078  0.001810  0.006513
  1C   1dx2y2     0.007651 -0.003285  0.004291 -0.007255  0.004607 -0.010525
  1C   1dxy       0.008368 -0.001421 -0.000928  0.001256  0.002359  0.015330
  2C   1s         0.003613 -0.000009  0.000040 -0.000057 -0.000024  0.038380
  2C   2s        -0.013633  0.000055 -0.000111  0.000116  0.000112 -0.062944
  2C   1pz        0.022506  0.048832 -0.320520  0.347286 -0.022235 -0.031675
  2C   1px        0.180279 -0.012820  0.084117 -0.091132  0.005751 -0.120346
  2C   1py       -0.160645 -0.007680  0.050604 -0.054737  0.003441 -0.001615
  2C   3s         0.016118 -0.000459  0.000171  0.000233 -0.000178 -0.514825
  2C   2pz       -0.002023  0.035108 -0.229838  0.456813 -0.029167 -0.071831
  2C   2px        0.028581 -0.008827  0.060038 -0.119585  0.007861 -0.272927
  2C   2py       -0.062317 -0.005464  0.036231 -0.072142  0.004504 -0.003836
  2C   1dz2      -0.000658 -0.004724  0.001843  0.003541 -0.007239 -0.002214
  2C   1dxz       0.005889  0.000795  0.005313  0.008229  0.002008  0.006422
  2C   1dyz       0.000062 -0.017021 -0.002756 -0.001999 -0.027366 -0.001819
  2C   1dx2y2     0.015201 -0.002767 -0.001880 -0.002575 -0.004649  0.018559
  2C   1dxy       0.007733  0.004577 -0.000201 -0.000938  0.007221  0.001036
  3C   1s        -0.004258  0.000044 -0.000028 -0.000029  0.000064  0.038323
  3C   2s         0.016026 -0.000134  0.000083  0.000030 -0.000116 -0.062853
  3C   1pz       -0.030322  0.301985 -0.117880 -0.154371  0.311823 -0.000800
  3C   1px       -0.192550 -0.079397  0.030971  0.040519 -0.081969 -0.065619
  3C   1py        0.125409 -0.047556  0.018548  0.024213 -0.049056  0.105636
  3C   3s        -0.018786  0.000304 -0.000213  0.000436 -0.000308 -0.514244
  3C   2pz       -0.011288  0.216447 -0.084533 -0.203006  0.410170 -0.001896
  3C   2px       -0.047990 -0.057091  0.022314  0.053187 -0.108049 -0.149053
  3C   2py        0.006293 -0.033731  0.013056  0.031855 -0.064299  0.239604
  3C   1dz2       0.003483 -0.003337 -0.008417  0.012881  0.006452 -0.004438
  3C   1dxz       0.004234 -0.007578 -0.011118  0.016594  0.013506 -0.003172
  3C   1dyz       0.001300  0.001531 -0.009411  0.015103 -0.001056 -0.002121
[...]
freq.     620.83  E(vib)   ...       1.80 
freq.     693.58  E(vib)   ...       1.72 
freq.     718.04  E(vib)   ...       1.69 
freq.     865.28  E(vib)   ...       1.54 
freq.     865.89  E(vib)   ...       1.54 
freq.     974.69  E(vib)   ...       1.44 
freq.     975.23  E(vib)   ...       1.44 
freq.    1013.68  E(vib)   ...       1.40 
freq.    1017.59  E(vib)   ...       1.40 
freq.    1017.89  E(vib)   ...       1.40 
freq.    1061.86  E(vib)   ...       1.36 
freq.    1065.23  E(vib)   ...       1.35 
freq.    1179.15  E(vib)   ...       1.25 
freq.    1201.18  E(vib)   ...       1.24 
freq.    1201.46  E(vib)   ...       1.24 
freq.    1353.43  E(vib)   ...       1.11 
freq.    1380.43  E(vib)   ...       1.09 
freq.    1522.97  E(vib)   ...       0.99 
freq.    1527.31  E(vib)   ...       0.99 
freq.    1650.06  E(vib)   ...       0.91 
freq.    1650.84  E(vib)   ...       0.91 
freq.    3171.02  E(vib)   ...       0.28 
freq.    3180.04  E(vib)   ...       0.28 
freq.    3180.28  E(vib)   ...       0.28 
freq.    3194.89  E(vib)   ...       0.27 
freq.    3195.13  E(vib)   ...       0.27 
freq.    3204.74  E(vib)   ...       0.27 

------------
INNER ENERGY
------------

The inner energy is: U= E(el) + E(ZPE) + E(vib) + E(rot) + E(trans)
    E(el)   - is the total energy from the electronic structure calculation
              = E(kin-el) + E(nuc-el) + E(el-el) + E(nuc-nuc)
    E(ZPE)  - the the zero temperature vibrational energy from the frequency calculation
    E(vib)  - the the finite temperature correction to E(ZPE) due to population
              of excited vibrational states
    E(rot)  - is the rotational thermal energy
    E(trans)- is the translational thermal energy

Summary of contributions to the inner energy U:
Electronic energy                ...   -232.09902193 Eh
Zero point energy                ...      0.10054011 Eh      63.09 kcal/mol
Thermal vibrational correction   ...      0.05626475 Eh      35.31 kcal/mol
Thermal rotational correction    ...      0.00617526 Eh       3.88 kcal/mol
Thermal translational correction ...      0.00617526 Eh       3.88 kcal/mol
-----------------------------------------------------------------------
Total thermal energy                   -231.92986655 Eh


Summary of corrections to the electronic energy:
(perhaps to be used in another calculation)
Total thermal correction                  0.06861526 Eh      43.06 kcal/mol
Non-thermal (ZPE) correction              0.10054011 Eh      63.09 kcal/mol
-----------------------------------------------------------------------
Total correction                          0.16915538 Eh     106.15 kcal/mol


--------
ENTHALPY
--------

The enthalpy is H = U + kB*T
                kB is Boltzmann's constant
Total free energy                 ...   -231.92986655 Eh 
Thermal Enthalpy correction       ...      0.00411696 Eh       2.58 kcal/mol
-----------------------------------------------------------------------
Total Enthalpy                    ...   -231.92574959 Eh


Note: Only C1 symmetry has been detected, increase convergence thresholds 
      if your molecule has a higher symmetry. Symmetry factor of 1.0 is   
      used for the rotational entropy correction. 
 

Note: Rotational entropy computed according to Herzberg 
Infrared and Raman Spectra, Chapter V,1, Van Nostrand Reinhold, 1945 
Point Group:  C1, Symmetry Number:   1  
Rotational constants in cm-1:     0.189452     0.189426     0.094719 

Vibrational entropy computed according to the QRRHO of S. Grimme
Chem.Eur.J. 2012 18 9955


-------
ENTROPY
-------

The entropy contributions are T*S = T*(S(el)+S(vib)+S(rot)+S(trans))
     S(el)   - electronic entropy
     S(vib)  - vibrational entropy
     S(rot)  - rotational entropy
     S(trans)- translational entropy
The entropies will be listed as multiplied by the temperature to get
units of energy

Electronic entropy                ...      0.00000000 Eh      0.00 kcal/mol
Vibrational entropy               ...      0.10032363 Eh     62.95 kcal/mol
Rotational entropy                ...      0.06226294 Eh     39.07 kcal/mol
Translational entropy             ...      0.07842248 Eh     49.21 kcal/mol
-----------------------------------------------------------------------
Final entropy term                ...      0.24100905 Eh    151.24 kcal/mol

In case the symmetry of your molecule has not been determined correctly
or in case you have a reason to use a different symmetry number we print 
out the resulting rotational entropy values for sn=1,12 :
 --------------------------------------------------------
|  sn= 1 | S(rot)=       0.06226294 Eh     39.07 kcal/mol|
|  sn= 2 | S(rot)=       0.05940936 Eh     37.28 kcal/mol|
|  sn= 3 | S(rot)=       0.05774013 Eh     36.23 kcal/mol|
|  sn= 4 | S(rot)=       0.05655579 Eh     35.49 kcal/mol|
|  sn= 5 | S(rot)=       0.05563714 Eh     34.91 kcal/mol|
|  sn= 6 | S(rot)=       0.05488655 Eh     34.44 kcal/mol|
|  sn= 7 | S(rot)=       0.05425194 Eh     34.04 kcal/mol|
|  sn= 8 | S(rot)=       0.05370221 Eh     33.70 kcal/mol|
|  sn= 9 | S(rot)=       0.05321732 Eh     33.39 kcal/mol|
|  sn=10 | S(rot)=       0.05278357 Eh     33.12 kcal/mol|
|  sn=11 | S(rot)=       0.05239119 Eh     32.88 kcal/mol|
|  sn=12 | S(rot)=       0.05203298 Eh     32.65 kcal/mol|
 --------------------------------------------------------


-------------------
GIBBS FREE ENERGY
-------------------

The Gibbs free energy is G = H - T*S

Total enthalpy                    ...   -231.92574959 Eh 
Total entropy correction          ...     -0.24100905 Eh   -151.24 kcal/mol
-----------------------------------------------------------------------
Final Gibbs free energy         ...   -232.16675864 Eh

For completeness - the Gibbs free energy minus the electronic energy
G-E(el)                           ...     -0.06773671 Eh    -42.51 kcal/mol


The first frequency considered to be a vibration is 6
The total number of vibrations considered is 30


--------------------------
THERMOCHEMISTRY AT 1300.00K
--------------------------

Temperature         ... 1300.00 K
Pressure            ... 80.00 atm
Total Mass          ... 78.11 AMU

Throughout the following assumptions are being made:
  (1) The electronic state is orbitally nondegenerate
  (2) There are no thermally accessible electronically excited states
  (3) Hindered rotations indicated by low frequency modes are not
      treated as such but are treated as vibrations and this may
      cause some error
  (4) All equations used are the standard statistical mechanics
      equations for an ideal gas
  (5) All vibrations are strictly harmonic

freq.     414.03  E(vib)   ...       2.04 
freq.     414.73  E(vib)   ...       2.04 
freq.     620.55  E(vib)   ...       1.80 
freq.     620.83  E(vib)   ...       1.80 
freq.     693.58  E(vib)   ...       1.72 
freq.     718.04  E(vib)   ...       1.69 
freq.     865.28  E(vib)   ...       1.54 
freq.     865.89  E(vib)   ...       1.54 
freq.     974.69  E(vib)   ...       1.44 
freq.     975.23  E(vib)   ...       1.44 
freq.    1013.68  E(vib)   ...       1.40 
freq.    1017.59  E(vib)   ...       1.40 
freq.    1017.89  E(vib)   ...       1.40 
freq.    1061.86  E(vib)   ...       1.36 
freq.    1065.23  E(vib)   ...       1.35 
freq.    1179.15  E(vib)   ...       1.25 
freq.    1201.18  E(vib)   ...       1.24 
freq.    1201.46  E(vib)   ...       1.24 
freq.    1353.43  E(vib)   ...       1.11 
freq.    1380.43  E(vib)   ...       1.09 
freq.    1522.97  E(vib)   ...       0.99 
freq.    1527.31  E(vib)   ...       0.99 
freq.    1650.06  E(vib)   ...       0.91 
freq.    1650.84  E(vib)   ...       0.91 
freq.    3171.02  E(vib)   ...       0.28 
freq.    3180.04  E(vib)   ...       0.28 
freq.    3180.28  E(vib)   ...       0.28 
freq.    3194.89  E(vib)   ...       0.27 
freq.    3195.13  E(vib)   ...       0.27 
freq.    3204.74  E(vib)   ...       0.27 

------------
INNER ENERGY
------------

The inner energy is: U= E(el) + E(ZPE) + E(vib) + E(rot) + E(trans)
    E(el)   - is the total energy from the electronic structure calculation
              = E(kin-el) + E(nuc-el) + E(el-el) + E(nuc-nuc)
    E(ZPE)  - the the zero temperature vibrational energy from the frequency calculation
    E(vib)  - the the finite temperature correction to E(ZPE) due to population
              of excited vibrational states
    E(rot)  - is the rotational thermal energy
    E(trans)- is the translational thermal energy

Summary of contributions to the inner energy U:
Electronic energy                ...   -232.09902193 Eh
Zero point energy                ...      0.10054011 Eh      63.09 kcal/mol
Thermal vibrational correction   ...      0.05626475 Eh      35.31 kcal/mol
Thermal rotational correction    ...      0.00617526 Eh       3.88 kcal/mol
Thermal translational correction ...      0.00617526 Eh       3.88 kcal/mol
-----------------------------------------------------------------------
Total thermal energy                   -231.92986655 Eh


Summary of corrections to the electronic energy:
(perhaps to be used in another calculation)
Total thermal correction                  0.06861526 Eh      43.06 kcal/mol
Non-thermal (ZPE) correction              0.10054011 Eh      63.09 kcal/mol
-----------------------------------------------------------------------
Total correction                          0.16915538 Eh     106.15 kcal/mol


--------
ENTHALPY
--------

The enthalpy is H = U + kB*T
                kB is Boltzmann's constant
Total free energy                 ...   -231.92986655 Eh 
Thermal Enthalpy correction       ...      0.00411696 Eh       2.58 kcal/mol
-----------------------------------------------------------------------
Total Enthalpy                    ...   -231.92574959 Eh


Note: Only C1 symmetry has been detected, increase convergence thresholds 
      if your molecule has a higher symmetry. Symmetry factor of 1.0 is   
      used for the rotational entropy correction. 
 

Note: Rotational entropy computed according to Herzberg 
Infrared and Raman Spectra, Chapter V,1, Van Nostrand Reinhold, 1945 
Point Group:  C1, Symmetry Number:   1  
Rotational constants in cm-1:     0.189452     0.189426     0.094719 

Vibrational entropy computed according to the QRRHO of S. Grimme
Chem.Eur.J. 2012 18 9955


-------
ENTROPY
-------

The entropy contributions are T*S = T*(S(el)+S(vib)+S(rot)+S(trans))
     S(el)   - electronic entropy
     S(vib)  - vibrational entropy
     S(rot)  - rotational entropy
     S(trans)- translational entropy
The entropies will be listed as multiplied by the temperature to get
units of energy

Electronic entropy                ...      0.00000000 Eh      0.00 kcal/mol
Vibrational entropy               ...      0.10032363 Eh     62.95 kcal/mol
Rotational entropy                ...      0.06226294 Eh     39.07 kcal/mol
Translational entropy             ...      0.07787275 Eh     48.87 kcal/mol
-----------------------------------------------------------------------
Final entropy term                ...      0.24045932 Eh    150.89 kcal/mol

In case the symmetry of your molecule has not been determined correctly
or in case you have a reason to use a different symmetry number we print 
out the resulting rotational entropy values for sn=1,12 :
 --------------------------------------------------------
|  sn= 1 | S(rot)=       0.06226294 Eh     39.07 kcal/mol|
|  sn= 2 | S(rot)=       0.05940936 Eh     37.28 kcal/mol|
|  sn= 3 | S(rot)=       0.05774013 Eh     36.23 kcal/mol|
|  sn= 4 | S(rot)=       0.05655579 Eh     35.49 kcal/mol|
|  sn= 5 | S(rot)=       0.05563714 Eh     34.91 kcal/mol|
|  sn= 6 | S(rot)=       0.05488655 Eh     34.44 kcal/mol|
|  sn= 7 | S(rot)=       0.05425194 Eh     34.04 kcal/mol|
|  sn= 8 | S(rot)=       0.05370221 Eh     33.70 kcal/mol|
|  sn= 9 | S(rot)=       0.05321732 Eh     33.39 kcal/mol|
|  sn=10 | S(rot)=       0.05278357 Eh     33.12 kcal/mol|
|  sn=11 | S(rot)=       0.05239119 Eh     32.88 kcal/mol|
|  sn=12 | S(rot)=       0.05203298 Eh     32.65 kcal/mol|
 --------------------------------------------------------


-------------------
GIBBS FREE ENERGY
-------------------

The Gibbs free energy is G = H - T*S

Total enthalpy                    ...   -231.92574959 Eh 
Total entropy correction          ...     -0.24045932 Eh   -150.89 kcal/mol
-----------------------------------------------------------------------
Final Gibbs free energy         ...   -232.16620891 Eh

For completeness - the Gibbs free energy minus the electronic energy
G-E(el)                           ...     -0.06718698 Eh    -42.16 kcal/mol


The first frequency considered to be a vibration is 6
The total number of vibrations considered is 30


--------------------------
THERMOCHEMISTRY AT 1300.00K
--------------------------

Temperature         ... 1300.00 K
Pressure            ... 90.00 atm
Total Mass          ... 78.11 AMU

Throughout the following assumptions are being made:
  (1) The electronic state is orbitally nondegenerate
  (2) There are no thermally accessible electronically excited states
  (3) Hindered rotations indicated by low frequency modes are not
      treated as such but are treated as vibrations and this may
      cause some error
  (4) All equations used are the standard statistical mechanics
      equations for an ideal gas
  (5) All vibrations are strictly harmonic

freq.     414.03  E(vib)   ...       2.04 
freq.     414.73  E(vib)   ...       2.04 
freq.     620.55  E(vib)   ...       1.80 
freq.     620.83  E(vib)   ...       1.80 
freq.     693.58  E(vib)   ...       1.72 
freq.     718.04  E(vib)   ...       1.69 
freq.     865.28  E(vib)   ...       1.54 
freq.     865.89  E(vib)   ...       1.54 
freq.     974.69  E(vib)   ...       1.44 
freq.     975.23  E(vib)   ...       1.44 
freq.    1013.68  E(vib)   ...       1.40 
freq.    1017.59  E(vib)   ...       1.40 
freq.    1017.89  E(vib)   ...       1.40 
freq.    1061.86  E(vib)   ...       1.36 
freq.    1065.23  E(vib)   ...       1.35 
freq.    1179.15  E(vib)   ...       1.25 
freq.    1201.18  E(vib)   ...       1.24 
freq.    1201.46  E(vib)   ...       1.24 
freq.    1353.43  E(vib)   ...       1.11 
freq.    1380.43  E(vib)   ...       1.09 
freq.    1522.97  E(vib)   ...       0.99 
freq.    1527.31  E(vib)   ...       0.99 
freq.    1650.06  E(vib)   ...       0.91 
freq.    1650.84  E(vib)   ...       0.91 
freq.    3171.02  E(vib)   ...       0.28 
freq.    3180.04  E(vib)   ...       0.28 
freq.    3180.28  E(vib)   ...       0.28 
freq.    3194.89  E(vib)   ...       0.27 
freq.    3195.13  E(vib)   ...       0.27 
freq.    3204.74  E(vib)   ...       0.27 

------------
INNER ENERGY
------------

The inner energy is: U= E(el) + E(ZPE) + E(vib) + E(rot) + E(trans)
    E(el)   - is the total energy from the electronic structure calculation
              = E(kin-el) + E(nuc-el) + E(el-el) + E(nuc-nuc)
    E(ZPE)  - the the zero temperature vibrational energy from the frequency calculation
    E(vib)  - the the finite temperature correction to E(ZPE) due to population
              of excited vibrational states
    E(rot)  - is the rotational thermal energy
    E(trans)- is the translational thermal energy

Summary of contributions to the inner energy U:
Electronic energy                ...   -232.09902193 Eh
Zero point energy                ...      0.10054011 Eh      63.09 kcal/mol
Thermal vibrational correction   ...      0.05626475 Eh      35.31 kcal/mol
Thermal rotational correction    ...      0.00617526 Eh       3.88 kcal/mol
Thermal translational correction ...      0.00617526 Eh       3.88 kcal/mol
-----------------------------------------------------------------------
Total thermal energy                   -231.92986655 Eh


Summary of corrections to the electronic energy:
(perhaps to be used in another calculation)
Total thermal correction                  0.06861526 Eh      43.06 kcal/mol
Non-thermal (ZPE) correction              0.10054011 Eh      63.09 kcal/mol
-----------------------------------------------------------------------
Total correction                          0.16915538 Eh     106.15 kcal/mol


--------
ENTHALPY
--------

The enthalpy is H = U + kB*T
                kB is Boltzmann's constant
Total free energy                 ...   -231.92986655 Eh 
Thermal Enthalpy correction       ...      0.00411696 Eh       2.58 kcal/mol
-----------------------------------------------------------------------
Total Enthalpy                    ...   -231.92574959 Eh


Note: Only C1 symmetry has been detected, increase convergence thresholds 
      if your molecule has a higher symmetry. Symmetry factor of 1.0 is   
      used for the rotational entropy correction. 
 

Note: Rotational entropy computed according to Herzberg 
Infrared and Raman Spectra, Chapter V,1, Van Nostrand Reinhold, 1945 
Point Group:  C1, Symmetry Number:   1  
Rotational constants in cm-1:     0.189452     0.189426     0.094719 

Vibrational entropy computed according to the QRRHO of S. Grimme
Chem.Eur.J. 2012 18 9955


-------
ENTROPY
-------

The entropy contributions are T*S = T*(S(el)+S(vib)+S(rot)+S(trans))
     S(el)   - electronic entropy
     S(vib)  - vibrational entropy
     S(rot)  - rotational entropy
     S(trans)- translational entropy
The entropies will be listed as multiplied by the temperature to get
units of energy

Electronic entropy                ...      0.00000000 Eh      0.00 kcal/mol
Vibrational entropy               ...      0.10032363 Eh     62.95 kcal/mol
Rotational entropy                ...      0.06226294 Eh     39.07 kcal/mol
Translational entropy             ...      0.07738786 Eh     48.56 kcal/mol
-----------------------------------------------------------------------
Final entropy term                ...      0.23997443 Eh    150.59 kcal/mol

In case the symmetry of your molecule has not been determined correctly
or in case you have a reason to use a different symmetry number we print 
out the resulting rotational entropy values for sn=1,12 :
 --------------------------------------------------------
|  sn= 1 | S(rot)=       0.06226294 Eh     39.07 kcal/mol|
|  sn= 2 | S(rot)=       0.05940936 Eh     37.28 kcal/mol|
|  sn= 3 | S(rot)=       0.05774013 Eh     36.23 kcal/mol|
|  sn= 4 | S(rot)=       0.05655579 Eh     35.49 kcal/mol|
|  sn= 5 | S(rot)=       0.05563714 Eh     34.91 kcal/mol|
|  sn= 6 | S(rot)=       0.05488655 Eh     34.44 kcal/mol|
|  sn= 7 | S(rot)=       0.05425194 Eh     34.04 kcal/mol|
|  sn= 8 | S(rot)=       0.05370221 Eh     33.70 kcal/mol|
|  sn= 9 | S(rot)=       0.05321732 Eh     33.39 kcal/mol|
|  sn=10 | S(rot)=       0.05278357 Eh     33.12 kcal/mol|
|  sn=11 | S(rot)=       0.05239119 Eh     32.88 kcal/mol|
|  sn=12 | S(rot)=       0.05203298 Eh     32.65 kcal/mol|
 --------------------------------------------------------


-------------------
GIBBS FREE ENERGY
-------------------

The Gibbs free energy is G = H - T*S

Total enthalpy                    ...   -231.92574959 Eh 
Total entropy correction          ...     -0.23997443 Eh   -150.59 kcal/mol
-----------------------------------------------------------------------
Final Gibbs free energy         ...   -232.16572402 Eh

For completeness - the Gibbs free energy minus the electronic energy
G-E(el)                           ...     -0.06670209 Eh    -41.86 kcal/mol



Timings for individual modules:

Sum of individual times         ...     2459.138 sec (=  40.986 min)
GTO integral calculation        ...        4.206 sec (=   0.070 min)   0.2 %
SCF iterations                  ...       98.323 sec (=   1.639 min)   4.0 %
SCF Gradient evaluation         ...       34.160 sec (=   0.569 min)   1.4 %
Geometry relaxation             ...        0.601 sec (=   0.010 min)   0.0 %
Numerical frequency calculation ...     2321.848 sec (=  38.697 min)  94.4 %
                             ****ORCA TERMINATED NORMALLY****
TOTAL RUN TIME: 0 days 0 hours 40 minutes 36 seconds 484 msec
